  16  16   1   0
  0.1283753E+02  0.5828363E-09  0.5826912E-09  0.6048066E-09  0.5000000E-15
  1.000000000000000E-004
  CAR 
 unknown system                          
     23.37765180    -57.11787101  301     10.21369387      1.00000000
    -57.118  0.0000E+00  0.0000E+00  0.0000E+00  0.0000E+00
    -56.850  0.0000E+00  0.0000E+00  0.0000E+00  0.0000E+00
    -56.581  0.0000E+00  0.0000E+00  0.0000E+00  0.0000E+00
    -56.313  0.0000E+00  0.0000E+00  0.0000E+00  0.0000E+00
    -56.045  0.0000E+00  0.0000E+00  0.0000E+00  0.0000E+00
    -55.776  0.0000E+00  0.0000E+00  0.0000E+00  0.0000E+00
    -55.508  0.0000E+00  0.0000E+00  0.0000E+00  0.0000E+00
    -55.240  0.0000E+00  0.0000E+00  0.0000E+00  0.0000E+00
    -54.971  0.0000E+00  0.0000E+00  0.0000E+00  0.0000E+00
    -54.703  0.0000E+00  0.0000E+00  0.0000E+00  0.0000E+00
    -54.435  0.0000E+00  0.0000E+00  0.0000E+00  0.0000E+00
    -54.166  0.0000E+00  0.0000E+00  0.0000E+00  0.0000E+00
    -53.898  0.0000E+00  0.0000E+00  0.0000E+00  0.0000E+00
    -53.630  0.0000E+00  0.0000E+00  0.0000E+00  0.0000E+00
    -53.361  0.2635E+00  0.2635E+00  0.7071E-01  0.7071E-01
    -53.093  0.7529E-01  0.7529E-01  0.9091E-01  0.9091E-01
    -52.825  0.0000E+00  0.0000E+00  0.9091E-01  0.9091E-01
    -52.556  0.0000E+00  0.0000E+00  0.9091E-01  0.9091E-01
    -52.288  0.0000E+00  0.0000E+00  0.9091E-01  0.9091E-01
    -52.020  0.0000E+00  0.0000E+00  0.9091E-01  0.9091E-01
    -51.752  0.0000E+00  0.0000E+00  0.9091E-01  0.9091E-01
    -51.483  0.0000E+00  0.0000E+00  0.9091E-01  0.9091E-01
    -51.215  0.0000E+00  0.0000E+00  0.9091E-01  0.9091E-01
    -50.947  0.0000E+00  0.0000E+00  0.9091E-01  0.9091E-01
    -50.678  0.0000E+00  0.0000E+00  0.9091E-01  0.9091E-01
    -50.410  0.0000E+00  0.0000E+00  0.9091E-01  0.9091E-01
    -50.142  0.0000E+00  0.0000E+00  0.9091E-01  0.9091E-01
    -49.873  0.0000E+00  0.0000E+00  0.9091E-01  0.9091E-01
    -49.605  0.0000E+00  0.0000E+00  0.9091E-01  0.9091E-01
    -49.337  0.0000E+00  0.0000E+00  0.9091E-01  0.9091E-01
    -49.068  0.0000E+00  0.0000E+00  0.9091E-01  0.9091E-01
    -48.800  0.0000E+00  0.0000E+00  0.9091E-01  0.9091E-01
    -48.532  0.0000E+00  0.0000E+00  0.9091E-01  0.9091E-01
    -48.263  0.0000E+00  0.0000E+00  0.9091E-01  0.9091E-01
    -47.995  0.0000E+00  0.0000E+00  0.9091E-01  0.9091E-01
    -47.727  0.0000E+00  0.0000E+00  0.9091E-01  0.9091E-01
    -47.458  0.0000E+00  0.0000E+00  0.9091E-01  0.9091E-01
    -47.190  0.0000E+00  0.0000E+00  0.9091E-01  0.9091E-01
    -46.922  0.0000E+00  0.0000E+00  0.9091E-01  0.9091E-01
    -46.653  0.0000E+00  0.0000E+00  0.9091E-01  0.9091E-01
    -46.385  0.0000E+00  0.0000E+00  0.9091E-01  0.9091E-01
    -46.117  0.0000E+00  0.0000E+00  0.9091E-01  0.9091E-01
    -45.848  0.0000E+00  0.0000E+00  0.9091E-01  0.9091E-01
    -45.580  0.0000E+00  0.0000E+00  0.9091E-01  0.9091E-01
    -45.312  0.0000E+00  0.0000E+00  0.9091E-01  0.9091E-01
    -45.044  0.0000E+00  0.0000E+00  0.9091E-01  0.9091E-01
    -44.775  0.0000E+00  0.0000E+00  0.9091E-01  0.9091E-01
    -44.507  0.0000E+00  0.0000E+00  0.9091E-01  0.9091E-01
    -44.239  0.0000E+00  0.0000E+00  0.9091E-01  0.9091E-01
    -43.970  0.0000E+00  0.0000E+00  0.9091E-01  0.9091E-01
    -43.702  0.0000E+00  0.0000E+00  0.9091E-01  0.9091E-01
    -43.434  0.0000E+00  0.0000E+00  0.9091E-01  0.9091E-01
    -43.165  0.0000E+00  0.0000E+00  0.9091E-01  0.9091E-01
    -42.897  0.0000E+00  0.0000E+00  0.9091E-01  0.9091E-01
    -42.629  0.0000E+00  0.0000E+00  0.9091E-01  0.9091E-01
    -42.360  0.0000E+00  0.0000E+00  0.9091E-01  0.9091E-01
    -42.092  0.0000E+00  0.0000E+00  0.9091E-01  0.9091E-01
    -41.824  0.0000E+00  0.0000E+00  0.9091E-01  0.9091E-01
    -41.555  0.0000E+00  0.0000E+00  0.9091E-01  0.9091E-01
    -41.287  0.0000E+00  0.0000E+00  0.9091E-01  0.9091E-01
    -41.019  0.0000E+00  0.0000E+00  0.9091E-01  0.9091E-01
    -40.750  0.0000E+00  0.0000E+00  0.9091E-01  0.9091E-01
    -40.482  0.0000E+00  0.0000E+00  0.9091E-01  0.9091E-01
    -40.214  0.0000E+00  0.0000E+00  0.9091E-01  0.9091E-01
    -39.945  0.0000E+00  0.0000E+00  0.9091E-01  0.9091E-01
    -39.677  0.0000E+00  0.0000E+00  0.9091E-01  0.9091E-01
    -39.409  0.0000E+00  0.0000E+00  0.9091E-01  0.9091E-01
    -39.141  0.0000E+00  0.0000E+00  0.9091E-01  0.9091E-01
    -38.872  0.0000E+00  0.0000E+00  0.9091E-01  0.9091E-01
    -38.604  0.0000E+00  0.0000E+00  0.9091E-01  0.9091E-01
    -38.336  0.0000E+00  0.0000E+00  0.9091E-01  0.9091E-01
    -38.067  0.0000E+00  0.0000E+00  0.9091E-01  0.9091E-01
    -37.799  0.0000E+00  0.0000E+00  0.9091E-01  0.9091E-01
    -37.531  0.0000E+00  0.0000E+00  0.9091E-01  0.9091E-01
    -37.262  0.0000E+00  0.0000E+00  0.9091E-01  0.9091E-01
    -36.994  0.0000E+00  0.0000E+00  0.9091E-01  0.9091E-01
    -36.726  0.0000E+00  0.0000E+00  0.9091E-01  0.9091E-01
    -36.457  0.0000E+00  0.0000E+00  0.9091E-01  0.9091E-01
    -36.189  0.0000E+00  0.0000E+00  0.9091E-01  0.9091E-01
    -35.921  0.0000E+00  0.0000E+00  0.9091E-01  0.9091E-01
    -35.652  0.0000E+00  0.0000E+00  0.9091E-01  0.9091E-01
    -35.384  0.0000E+00  0.0000E+00  0.9091E-01  0.9091E-01
    -35.116  0.0000E+00  0.0000E+00  0.9091E-01  0.9091E-01
    -34.847  0.0000E+00  0.0000E+00  0.9091E-01  0.9091E-01
    -34.579  0.0000E+00  0.0000E+00  0.9091E-01  0.9091E-01
    -34.311  0.0000E+00  0.0000E+00  0.9091E-01  0.9091E-01
    -34.042  0.0000E+00  0.0000E+00  0.9091E-01  0.9091E-01
    -33.774  0.0000E+00  0.0000E+00  0.9091E-01  0.9091E-01
    -33.506  0.0000E+00  0.0000E+00  0.9091E-01  0.9091E-01
    -33.238  0.0000E+00  0.0000E+00  0.9091E-01  0.9091E-01
    -32.969  0.0000E+00  0.0000E+00  0.9091E-01  0.9091E-01
    -32.701  0.0000E+00  0.0000E+00  0.9091E-01  0.9091E-01
    -32.433  0.0000E+00  0.0000E+00  0.9091E-01  0.9091E-01
    -32.164  0.0000E+00  0.0000E+00  0.9091E-01  0.9091E-01
    -31.896  0.2763E+01  0.2763E+01  0.1908E+00  0.1908E+00
    -31.628  0.4098E-01  0.4098E-01  0.2121E+00  0.2121E+00
    -31.359  0.0000E+00  0.0000E+00  0.2121E+00  0.2121E+00
    -31.091  0.0000E+00  0.0000E+00  0.2121E+00  0.2121E+00
    -30.823  0.0000E+00  0.0000E+00  0.2121E+00  0.2121E+00
    -30.554  0.0000E+00  0.0000E+00  0.2121E+00  0.2121E+00
    -30.286  0.0000E+00  0.0000E+00  0.2121E+00  0.2121E+00
    -30.018  0.0000E+00  0.0000E+00  0.2121E+00  0.2121E+00
    -29.749  0.0000E+00  0.0000E+00  0.2121E+00  0.2121E+00
    -29.481  0.0000E+00  0.0000E+00  0.2121E+00  0.2121E+00
    -29.213  0.0000E+00  0.0000E+00  0.2121E+00  0.2121E+00
    -28.944  0.0000E+00  0.0000E+00  0.2121E+00  0.2121E+00
    -28.676  0.0000E+00  0.0000E+00  0.2121E+00  0.2121E+00
    -28.408  0.0000E+00  0.0000E+00  0.2121E+00  0.2121E+00
    -28.139  0.0000E+00  0.0000E+00  0.2121E+00  0.2121E+00
    -27.871  0.0000E+00  0.0000E+00  0.2121E+00  0.2121E+00
    -27.603  0.0000E+00  0.0000E+00  0.2121E+00  0.2121E+00
    -27.335  0.0000E+00  0.0000E+00  0.2121E+00  0.2121E+00
    -27.066  0.0000E+00  0.0000E+00  0.2121E+00  0.2121E+00
    -26.798  0.0000E+00  0.0000E+00  0.2121E+00  0.2121E+00
    -26.530  0.0000E+00  0.0000E+00  0.2121E+00  0.2121E+00
    -26.261  0.0000E+00  0.0000E+00  0.2121E+00  0.2121E+00
    -25.993  0.0000E+00  0.0000E+00  0.2121E+00  0.2121E+00
    -25.725  0.0000E+00  0.0000E+00  0.2121E+00  0.2121E+00
    -25.456  0.0000E+00  0.0000E+00  0.2121E+00  0.2121E+00
    -25.188  0.0000E+00  0.0000E+00  0.2121E+00  0.2121E+00
    -24.920  0.0000E+00  0.0000E+00  0.2121E+00  0.2121E+00
    -24.651  0.0000E+00  0.0000E+00  0.2121E+00  0.2121E+00
    -24.383  0.0000E+00  0.0000E+00  0.2121E+00  0.2121E+00
    -24.115  0.0000E+00  0.0000E+00  0.2121E+00  0.2121E+00
    -23.846  0.0000E+00  0.0000E+00  0.2121E+00  0.2121E+00
    -23.578  0.0000E+00  0.0000E+00  0.2121E+00  0.2121E+00
    -23.310  0.0000E+00  0.0000E+00  0.2121E+00  0.2121E+00
    -23.041  0.0000E+00  0.0000E+00  0.2121E+00  0.2121E+00
    -22.773  0.0000E+00  0.0000E+00  0.2121E+00  0.2121E+00
    -22.505  0.0000E+00  0.0000E+00  0.2121E+00  0.2121E+00
    -22.236  0.0000E+00  0.0000E+00  0.2121E+00  0.2121E+00
    -21.968  0.0000E+00  0.0000E+00  0.2121E+00  0.2121E+00
    -21.700  0.0000E+00  0.0000E+00  0.2121E+00  0.2121E+00
    -21.432  0.0000E+00  0.0000E+00  0.2121E+00  0.2121E+00
    -21.163  0.0000E+00  0.0000E+00  0.2121E+00  0.2121E+00
    -20.895  0.0000E+00  0.0000E+00  0.2121E+00  0.2121E+00
    -20.627  0.0000E+00  0.0000E+00  0.2121E+00  0.2121E+00
    -20.358  0.0000E+00  0.0000E+00  0.2121E+00  0.2121E+00
    -20.090  0.0000E+00  0.0000E+00  0.2121E+00  0.2121E+00
    -19.822  0.0000E+00  0.0000E+00  0.2121E+00  0.2121E+00
    -19.553  0.0000E+00  0.0000E+00  0.2121E+00  0.2121E+00
    -19.285  0.0000E+00  0.0000E+00  0.2121E+00  0.2121E+00
    -19.017  0.0000E+00  0.0000E+00  0.2121E+00  0.2121E+00
    -18.748  0.0000E+00  0.0000E+00  0.2121E+00  0.2121E+00
    -18.480  0.0000E+00  0.0000E+00  0.2121E+00  0.2121E+00
    -18.212  0.0000E+00  0.0000E+00  0.2121E+00  0.2121E+00
    -17.943  0.0000E+00  0.0000E+00  0.2121E+00  0.2121E+00
    -17.675  0.0000E+00  0.0000E+00  0.2121E+00  0.2121E+00
    -17.407  0.0000E+00  0.0000E+00  0.2121E+00  0.2121E+00
    -17.138  0.0000E+00  0.0000E+00  0.2121E+00  0.2121E+00
    -16.870  0.0000E+00  0.0000E+00  0.2121E+00  0.2121E+00
    -16.602  0.0000E+00  0.0000E+00  0.2121E+00  0.2121E+00
    -16.333  0.0000E+00  0.0000E+00  0.2121E+00  0.2121E+00
    -16.065  0.0000E+00  0.0000E+00  0.2121E+00  0.2121E+00
    -15.797  0.0000E+00  0.0000E+00  0.2121E+00  0.2121E+00
    -15.529  0.0000E+00  0.0000E+00  0.2121E+00  0.2121E+00
    -15.260  0.0000E+00  0.0000E+00  0.2121E+00  0.2121E+00
    -14.992  0.0000E+00  0.0000E+00  0.2121E+00  0.2121E+00
    -14.724  0.0000E+00  0.0000E+00  0.2121E+00  0.2121E+00
    -14.455  0.0000E+00  0.0000E+00  0.2121E+00  0.2121E+00
    -14.187  0.0000E+00  0.0000E+00  0.2121E+00  0.2121E+00
    -13.919  0.0000E+00  0.0000E+00  0.2121E+00  0.2121E+00
    -13.650  0.0000E+00  0.0000E+00  0.2121E+00  0.2121E+00
    -13.382  0.0000E+00  0.0000E+00  0.2121E+00  0.2121E+00
    -13.114  0.0000E+00  0.0000E+00  0.2121E+00  0.2121E+00
    -12.845  0.0000E+00  0.0000E+00  0.2121E+00  0.2121E+00
    -12.577  0.0000E+00  0.0000E+00  0.2121E+00  0.2121E+00
    -12.309  0.0000E+00  0.0000E+00  0.2121E+00  0.2121E+00
    -12.040  0.0000E+00  0.0000E+00  0.2121E+00  0.2121E+00
    -11.772  0.0000E+00  0.0000E+00  0.2121E+00  0.2121E+00
    -11.504  0.0000E+00  0.0000E+00  0.2121E+00  0.2121E+00
    -11.235  0.0000E+00  0.0000E+00  0.2121E+00  0.2121E+00
    -10.967  0.0000E+00  0.0000E+00  0.2121E+00  0.2121E+00
    -10.699  0.0000E+00  0.0000E+00  0.2121E+00  0.2121E+00
    -10.430  0.0000E+00  0.0000E+00  0.2121E+00  0.2121E+00
    -10.162  0.0000E+00  0.0000E+00  0.2121E+00  0.2121E+00
     -9.894  0.0000E+00  0.0000E+00  0.2121E+00  0.2121E+00
     -9.626  0.0000E+00  0.0000E+00  0.2121E+00  0.2121E+00
     -9.357  0.0000E+00  0.0000E+00  0.2121E+00  0.2121E+00
     -9.089  0.0000E+00  0.0000E+00  0.2121E+00  0.2121E+00
     -8.821  0.0000E+00  0.0000E+00  0.2121E+00  0.2121E+00
     -8.552  0.0000E+00  0.0000E+00  0.2121E+00  0.2121E+00
     -8.284  0.0000E+00  0.0000E+00  0.2121E+00  0.2121E+00
     -8.016  0.0000E+00  0.0000E+00  0.2121E+00  0.2121E+00
     -7.747  0.0000E+00  0.0000E+00  0.2121E+00  0.2121E+00
     -7.479  0.0000E+00  0.0000E+00  0.2121E+00  0.2121E+00
     -7.211  0.0000E+00  0.0000E+00  0.2121E+00  0.2121E+00
     -6.942  0.0000E+00  0.0000E+00  0.2121E+00  0.2121E+00
     -6.674  0.0000E+00  0.0000E+00  0.2121E+00  0.2121E+00
     -6.406  0.0000E+00  0.0000E+00  0.2121E+00  0.2121E+00
     -6.137  0.0000E+00  0.0000E+00  0.2121E+00  0.2121E+00
     -5.869  0.0000E+00  0.0000E+00  0.2121E+00  0.2121E+00
     -5.601  0.0000E+00  0.0000E+00  0.2121E+00  0.2121E+00
     -5.332  0.0000E+00  0.0000E+00  0.2121E+00  0.2121E+00
     -5.064  0.0000E+00  0.0000E+00  0.2121E+00  0.2121E+00
     -4.796  0.0000E+00  0.0000E+00  0.2121E+00  0.2121E+00
     -4.527  0.0000E+00  0.0000E+00  0.2121E+00  0.2121E+00
     -4.259  0.0000E+00  0.0000E+00  0.2121E+00  0.2121E+00
     -3.991  0.0000E+00  0.0000E+00  0.2121E+00  0.2121E+00
     -3.723  0.0000E+00  0.0000E+00  0.2121E+00  0.2121E+00
     -3.454  0.0000E+00  0.0000E+00  0.2121E+00  0.2121E+00
     -3.186  0.0000E+00  0.0000E+00  0.2121E+00  0.2121E+00
     -2.918  0.0000E+00  0.0000E+00  0.2121E+00  0.2121E+00
     -2.649  0.0000E+00  0.0000E+00  0.2121E+00  0.2121E+00
     -2.381  0.0000E+00  0.0000E+00  0.2121E+00  0.2121E+00
     -2.113  0.0000E+00  0.0000E+00  0.2121E+00  0.2121E+00
     -1.844  0.0000E+00  0.0000E+00  0.2121E+00  0.2121E+00
     -1.576  0.0000E+00  0.0000E+00  0.2121E+00  0.2121E+00
     -1.308  0.0000E+00  0.0000E+00  0.2121E+00  0.2121E+00
     -1.039  0.0000E+00  0.0000E+00  0.2121E+00  0.2121E+00
     -0.771  0.0000E+00  0.0000E+00  0.2121E+00  0.2121E+00
     -0.503  0.0000E+00  0.0000E+00  0.2121E+00  0.2121E+00
     -0.234  0.0000E+00  0.0000E+00  0.2121E+00  0.2121E+00
      0.034  0.2406E-02  0.2406E-02  0.2123E+00  0.2123E+00
      0.302  0.3687E-02  0.3687E-02  0.2131E+00  0.2131E+00
      0.571  0.7175E-02  0.7175E-02  0.2145E+00  0.2145E+00
      0.839  0.9801E-02  0.9801E-02  0.2171E+00  0.2171E+00
      1.107  0.8187E-02  0.8187E-02  0.2193E+00  0.2193E+00
      1.376  0.5793E-02  0.5793E-02  0.2213E+00  0.2213E+00
      1.644  0.4978E-02  0.4978E-02  0.2223E+00  0.2223E+00
      1.912  0.1314E-01  0.1314E-01  0.2251E+00  0.2251E+00
      2.180  0.1665E-01  0.1665E-01  0.2289E+00  0.2289E+00
      2.449  0.1524E-01  0.1524E-01  0.2333E+00  0.2333E+00
      2.717  0.8845E-02  0.8845E-02  0.2364E+00  0.2364E+00
      2.985  0.1624E-01  0.1624E-01  0.2399E+00  0.2399E+00
      3.254  0.2456E-01  0.2456E-01  0.2454E+00  0.2454E+00
      3.522  0.2261E-01  0.2261E-01  0.2516E+00  0.2516E+00
      3.790  0.2052E-01  0.2052E-01  0.2574E+00  0.2574E+00
      4.059  0.3009E-01  0.3009E-01  0.2657E+00  0.2657E+00
      4.327  0.3340E-01  0.3340E-01  0.2739E+00  0.2739E+00
      4.595  0.3846E-01  0.3846E-01  0.2803E+00  0.2803E+00
      4.864  0.5909E-01  0.5909E-01  0.2899E+00  0.2899E+00
      5.132  0.8871E-02  0.8871E-02  0.2948E+00  0.2948E+00
      5.400  0.2607E-01  0.2607E-01  0.3009E+00  0.3009E+00
      5.669  0.2788E-01  0.2788E-01  0.3073E+00  0.3073E+00
      5.937  0.4457E-01  0.4457E-01  0.3166E+00  0.3166E+00
      6.205  0.6004E-01  0.6004E-01  0.3299E+00  0.3299E+00
      6.474  0.1079E+00  0.1079E+00  0.3577E+00  0.3577E+00
      6.742  0.6750E-01  0.6750E-01  0.3735E+00  0.3735E+00
      7.010  0.6163E-01  0.6163E-01  0.3924E+00  0.3924E+00
      7.279  0.9311E-01  0.9311E-01  0.4109E+00  0.4109E+00
      7.547  0.1301E+00  0.1301E+00  0.4347E+00  0.4347E+00
      7.815  0.6554E-01  0.6554E-01  0.4536E+00  0.4536E+00
      8.084  0.2633E+00  0.2633E+00  0.4813E+00  0.4813E+00
      8.352  0.2140E+00  0.2140E+00  0.5100E+00  0.5100E+00
      8.620  0.2255E+00  0.2255E+00  0.5493E+00  0.5493E+00
      8.888  0.2220E+00  0.2220E+00  0.5922E+00  0.5922E+00
      9.157  0.1342E+00  0.1342E+00  0.6281E+00  0.6281E+00
      9.425  0.1114E+00  0.1114E+00  0.6554E+00  0.6554E+00
      9.693  0.8525E-01  0.8525E-01  0.6761E+00  0.6761E+00
      9.962  0.3822E-01  0.3822E-01  0.6869E+00  0.6869E+00
     10.230  0.2190E-01  0.2190E-01  0.6921E+00  0.6921E+00
     10.498  0.1802E-01  0.1802E-01  0.6963E+00  0.6963E+00
     10.767  0.2783E-01  0.2783E-01  0.7003E+00  0.7003E+00
     11.035  0.3464E-01  0.3464E-01  0.7099E+00  0.7099E+00
     11.303  0.1074E+00  0.1086E+00  0.7213E+00  0.7213E+00
     11.572  0.3885E-01  0.3885E-01  0.7314E+00  0.7314E+00
     11.840  0.2976E-01  0.2976E-01  0.7403E+00  0.7403E+00
     12.108  0.3236E-01  0.3236E-01  0.7491E+00  0.7491E+00
     12.377  0.3353E-01  0.3353E-01  0.7570E+00  0.7570E+00
     12.645  0.1970E-01  0.1970E-01  0.7627E+00  0.7627E+00
     12.913  0.1110E-01  0.1110E-01  0.7661E+00  0.7661E+00
     13.182  0.9650E-02  0.9650E-02  0.7687E+00  0.7687E+00
     13.450  0.2785E-01  0.2785E-01  0.7732E+00  0.7732E+00
     13.718  0.1535E-01  0.1535E-01  0.7782E+00  0.7782E+00
     13.987  0.4069E-01  0.4069E-01  0.7853E+00  0.7853E+00
     14.255  0.2790E-01  0.2790E-01  0.7937E+00  0.7937E+00
     14.523  0.3355E-01  0.3355E-01  0.8017E+00  0.8017E+00
     14.791  0.6169E-01  0.6169E-01  0.8131E+00  0.8131E+00
     15.060  0.5587E-01  0.5587E-01  0.8300E+00  0.8300E+00
     15.328  0.1921E-01  0.1921E-01  0.8404E+00  0.8404E+00
     15.596  0.3447E-01  0.3447E-01  0.8471E+00  0.8471E+00
     15.865  0.3308E-01  0.3308E-01  0.8560E+00  0.8560E+00
     16.133  0.3012E-01  0.3012E-01  0.8633E+00  0.8633E+00
     16.401  0.5539E-01  0.5539E-01  0.8751E+00  0.8751E+00
     16.670  0.5036E-01  0.5037E-01  0.8884E+00  0.8884E+00
     16.938  0.3387E-01  0.3387E-01  0.8964E+00  0.8964E+00
     17.206  0.4529E-01  0.4529E-01  0.9100E+00  0.9100E+00
     17.475  0.4416E-01  0.4416E-01  0.9197E+00  0.9197E+00
     17.743  0.1862E-01  0.1862E-01  0.9262E+00  0.9262E+00
     18.011  0.3713E-01  0.3713E-01  0.9330E+00  0.9330E+00
     18.280  0.3554E-01  0.3554E-01  0.9452E+00  0.9452E+00
     18.548  0.3634E-01  0.3625E-01  0.9534E+00  0.9534E+00
     18.816  0.3011E-01  0.3001E-01  0.9624E+00  0.9624E+00
     19.085  0.9668E-02  0.9690E-02  0.9671E+00  0.9671E+00
     19.353  0.4255E-02  0.4270E-02  0.9686E+00  0.9686E+00
     19.621  0.2043E-02  0.2054E-02  0.9694E+00  0.9694E+00
     19.890  0.5882E-03  0.5882E-03  0.9697E+00  0.9697E+00
     20.158  0.0000E+00  0.0000E+00  0.9697E+00  0.9697E+00
     20.426  0.0000E+00  0.0000E+00  0.9697E+00  0.9697E+00
     20.694  0.0000E+00  0.0000E+00  0.9697E+00  0.9697E+00
     20.963  0.0000E+00  0.0000E+00  0.9697E+00  0.9697E+00
     21.231  0.0000E+00  0.0000E+00  0.9697E+00  0.9697E+00
     21.499  0.0000E+00  0.0000E+00  0.9697E+00  0.9697E+00
     21.768  0.0000E+00  0.0000E+00  0.9697E+00  0.9697E+00
     22.036  0.0000E+00  0.0000E+00  0.9697E+00  0.9697E+00
     22.304  0.0000E+00  0.0000E+00  0.9697E+00  0.9697E+00
     22.573  0.0000E+00  0.0000E+00  0.9697E+00  0.9697E+00
     22.841  0.0000E+00  0.0000E+00  0.9697E+00  0.9697E+00
     23.109  0.0000E+00  0.0000E+00  0.9697E+00  0.9697E+00
     23.378  0.0000E+00  0.0000E+00  0.9697E+00  0.9697E+00
     23.37765180    -57.11787101  301     10.21369387      1.00000000
    -57.118  0.0000E+00  0.0000E+00  0.0000E+00  0.0000E+00  0.0000E+00  0.0000E+00  0.0000E+00  0.0000E+00  0.0000E+00  0.0000E+00  0.0000E+00  0.0000E+00  0.0000E+00  0.0000E+00  0.0000E+00  0.0000E+00  0.0000E+00  0.0000E+00
    -56.850  0.0000E+00  0.0000E+00  0.0000E+00  0.0000E+00  0.0000E+00  0.0000E+00  0.0000E+00  0.0000E+00  0.0000E+00  0.0000E+00  0.0000E+00  0.0000E+00  0.0000E+00  0.0000E+00  0.0000E+00  0.0000E+00  0.0000E+00  0.0000E+00
    -56.581  0.0000E+00  0.0000E+00  0.0000E+00  0.0000E+00  0.0000E+00  0.0000E+00  0.0000E+00  0.0000E+00  0.0000E+00  0.0000E+00  0.0000E+00  0.0000E+00  0.0000E+00  0.0000E+00  0.0000E+00  0.0000E+00  0.0000E+00  0.0000E+00
    -56.313  0.0000E+00  0.0000E+00  0.0000E+00  0.0000E+00  0.0000E+00  0.0000E+00  0.0000E+00  0.0000E+00  0.0000E+00  0.0000E+00  0.0000E+00  0.0000E+00  0.0000E+00  0.0000E+00  0.0000E+00  0.0000E+00  0.0000E+00  0.0000E+00
    -56.045  0.0000E+00  0.0000E+00  0.0000E+00  0.0000E+00  0.0000E+00  0.0000E+00  0.0000E+00  0.0000E+00  0.0000E+00  0.0000E+00  0.0000E+00  0.0000E+00  0.0000E+00  0.0000E+00  0.0000E+00  0.0000E+00  0.0000E+00  0.0000E+00
    -55.776  0.0000E+00  0.0000E+00  0.0000E+00  0.0000E+00  0.0000E+00  0.0000E+00  0.0000E+00  0.0000E+00  0.0000E+00  0.0000E+00  0.0000E+00  0.0000E+00  0.0000E+00  0.0000E+00  0.0000E+00  0.0000E+00  0.0000E+00  0.0000E+00
    -55.508  0.0000E+00  0.0000E+00  0.0000E+00  0.0000E+00  0.0000E+00  0.0000E+00  0.0000E+00  0.0000E+00  0.0000E+00  0.0000E+00  0.0000E+00  0.0000E+00  0.0000E+00  0.0000E+00  0.0000E+00  0.0000E+00  0.0000E+00  0.0000E+00
    -55.240  0.0000E+00  0.0000E+00  0.0000E+00  0.0000E+00  0.0000E+00  0.0000E+00  0.0000E+00  0.0000E+00  0.0000E+00  0.0000E+00  0.0000E+00  0.0000E+00  0.0000E+00  0.0000E+00  0.0000E+00  0.0000E+00  0.0000E+00  0.0000E+00
    -54.971  0.0000E+00  0.0000E+00  0.0000E+00  0.0000E+00  0.0000E+00  0.0000E+00  0.0000E+00  0.0000E+00  0.0000E+00  0.0000E+00  0.0000E+00  0.0000E+00  0.0000E+00  0.0000E+00  0.0000E+00  0.0000E+00  0.0000E+00  0.0000E+00
    -54.703  0.0000E+00  0.0000E+00  0.0000E+00  0.0000E+00  0.0000E+00  0.0000E+00  0.0000E+00  0.0000E+00  0.0000E+00  0.0000E+00  0.0000E+00  0.0000E+00  0.0000E+00  0.0000E+00  0.0000E+00  0.0000E+00  0.0000E+00  0.0000E+00
    -54.435  0.0000E+00  0.0000E+00  0.0000E+00  0.0000E+00  0.0000E+00  0.0000E+00  0.0000E+00  0.0000E+00  0.0000E+00  0.0000E+00  0.0000E+00  0.0000E+00  0.0000E+00  0.0000E+00  0.0000E+00  0.0000E+00  0.0000E+00  0.0000E+00
    -54.166  0.0000E+00  0.0000E+00  0.0000E+00  0.0000E+00  0.0000E+00  0.0000E+00  0.0000E+00  0.0000E+00  0.0000E+00  0.0000E+00  0.0000E+00  0.0000E+00  0.0000E+00  0.0000E+00  0.0000E+00  0.0000E+00  0.0000E+00  0.0000E+00
    -53.898  0.0000E+00  0.0000E+00  0.0000E+00  0.0000E+00  0.0000E+00  0.0000E+00  0.0000E+00  0.0000E+00  0.0000E+00  0.0000E+00  0.0000E+00  0.0000E+00  0.0000E+00  0.0000E+00  0.0000E+00  0.0000E+00  0.0000E+00  0.0000E+00
    -53.630  0.0000E+00  0.0000E+00  0.0000E+00  0.0000E+00  0.0000E+00  0.0000E+00  0.0000E+00  0.0000E+00  0.0000E+00  0.0000E+00  0.0000E+00  0.0000E+00  0.0000E+00  0.0000E+00  0.0000E+00  0.0000E+00  0.0000E+00  0.0000E+00
    -53.361  0.6078E-05  0.6078E-05  0.3087E-05  0.3087E-05  0.3819E-05  0.3818E-05  0.3093E-05  0.3093E-05  0.0000E+00  0.0000E+00  0.0000E+00  0.0000E+00  0.0000E+00  0.0000E+00  0.0000E+00  0.0000E+00  0.0000E+00  0.0000E+00
    -53.093  0.1582E-05  0.1582E-05  0.1001E-05  0.1001E-05  0.5925E-06  0.5924E-06  0.1001E-05  0.1001E-05  0.0000E+00  0.0000E+00  0.0000E+00  0.0000E+00  0.0000E+00  0.0000E+00  0.0000E+00  0.0000E+00  0.0000E+00  0.0000E+00
    -52.825  0.0000E+00  0.0000E+00  0.0000E+00  0.0000E+00  0.0000E+00  0.0000E+00  0.0000E+00  0.0000E+00  0.0000E+00  0.0000E+00  0.0000E+00  0.0000E+00  0.0000E+00  0.0000E+00  0.0000E+00  0.0000E+00  0.0000E+00  0.0000E+00
    -52.556  0.0000E+00  0.0000E+00  0.0000E+00  0.0000E+00  0.0000E+00  0.0000E+00  0.0000E+00  0.0000E+00  0.0000E+00  0.0000E+00  0.0000E+00  0.0000E+00  0.0000E+00  0.0000E+00  0.0000E+00  0.0000E+00  0.0000E+00  0.0000E+00
    -52.288  0.0000E+00  0.0000E+00  0.0000E+00  0.0000E+00  0.0000E+00  0.0000E+00  0.0000E+00  0.0000E+00  0.0000E+00  0.0000E+00  0.0000E+00  0.0000E+00  0.0000E+00  0.0000E+00  0.0000E+00  0.0000E+00  0.0000E+00  0.0000E+00
    -52.020  0.0000E+00  0.0000E+00  0.0000E+00  0.0000E+00  0.0000E+00  0.0000E+00  0.0000E+00  0.0000E+00  0.0000E+00  0.0000E+00  0.0000E+00  0.0000E+00  0.0000E+00  0.0000E+00  0.0000E+00  0.0000E+00  0.0000E+00  0.0000E+00
    -51.752  0.0000E+00  0.0000E+00  0.0000E+00  0.0000E+00  0.0000E+00  0.0000E+00  0.0000E+00  0.0000E+00  0.0000E+00  0.0000E+00  0.0000E+00  0.0000E+00  0.0000E+00  0.0000E+00  0.0000E+00  0.0000E+00  0.0000E+00  0.0000E+00
    -51.483  0.0000E+00  0.0000E+00  0.0000E+00  0.0000E+00  0.0000E+00  0.0000E+00  0.0000E+00  0.0000E+00  0.0000E+00  0.0000E+00  0.0000E+00  0.0000E+00  0.0000E+00  0.0000E+00  0.0000E+00  0.0000E+00  0.0000E+00  0.0000E+00
    -51.215  0.0000E+00  0.0000E+00  0.0000E+00  0.0000E+00  0.0000E+00  0.0000E+00  0.0000E+00  0.0000E+00  0.0000E+00  0.0000E+00  0.0000E+00  0.0000E+00  0.0000E+00  0.0000E+00  0.0000E+00  0.0000E+00  0.0000E+00  0.0000E+00
    -50.947  0.0000E+00  0.0000E+00  0.0000E+00  0.0000E+00  0.0000E+00  0.0000E+00  0.0000E+00  0.0000E+00  0.0000E+00  0.0000E+00  0.0000E+00  0.0000E+00  0.0000E+00  0.0000E+00  0.0000E+00  0.0000E+00  0.0000E+00  0.0000E+00
    -50.678  0.0000E+00  0.0000E+00  0.0000E+00  0.0000E+00  0.0000E+00  0.0000E+00  0.0000E+00  0.0000E+00  0.0000E+00  0.0000E+00  0.0000E+00  0.0000E+00  0.0000E+00  0.0000E+00  0.0000E+00  0.0000E+00  0.0000E+00  0.0000E+00
    -50.410  0.0000E+00  0.0000E+00  0.0000E+00  0.0000E+00  0.0000E+00  0.0000E+00  0.0000E+00  0.0000E+00  0.0000E+00  0.0000E+00  0.0000E+00  0.0000E+00  0.0000E+00  0.0000E+00  0.0000E+00  0.0000E+00  0.0000E+00  0.0000E+00
    -50.142  0.0000E+00  0.0000E+00  0.0000E+00  0.0000E+00  0.0000E+00  0.0000E+00  0.0000E+00  0.0000E+00  0.0000E+00  0.0000E+00  0.0000E+00  0.0000E+00  0.0000E+00  0.0000E+00  0.0000E+00  0.0000E+00  0.0000E+00  0.0000E+00
    -49.873  0.0000E+00  0.0000E+00  0.0000E+00  0.0000E+00  0.0000E+00  0.0000E+00  0.0000E+00  0.0000E+00  0.0000E+00  0.0000E+00  0.0000E+00  0.0000E+00  0.0000E+00  0.0000E+00  0.0000E+00  0.0000E+00  0.0000E+00  0.0000E+00
    -49.605  0.0000E+00  0.0000E+00  0.0000E+00  0.0000E+00  0.0000E+00  0.0000E+00  0.0000E+00  0.0000E+00  0.0000E+00  0.0000E+00  0.0000E+00  0.0000E+00  0.0000E+00  0.0000E+00  0.0000E+00  0.0000E+00  0.0000E+00  0.0000E+00
    -49.337  0.0000E+00  0.0000E+00  0.0000E+00  0.0000E+00  0.0000E+00  0.0000E+00  0.0000E+00  0.0000E+00  0.0000E+00  0.0000E+00  0.0000E+00  0.0000E+00  0.0000E+00  0.0000E+00  0.0000E+00  0.0000E+00  0.0000E+00  0.0000E+00
    -49.068  0.0000E+00  0.0000E+00  0.0000E+00  0.0000E+00  0.0000E+00  0.0000E+00  0.0000E+00  0.0000E+00  0.0000E+00  0.0000E+00  0.0000E+00  0.0000E+00  0.0000E+00  0.0000E+00  0.0000E+00  0.0000E+00  0.0000E+00  0.0000E+00
    -48.800  0.0000E+00  0.0000E+00  0.0000E+00  0.0000E+00  0.0000E+00  0.0000E+00  0.0000E+00  0.0000E+00  0.0000E+00  0.0000E+00  0.0000E+00  0.0000E+00  0.0000E+00  0.0000E+00  0.0000E+00  0.0000E+00  0.0000E+00  0.0000E+00
    -48.532  0.0000E+00  0.0000E+00  0.0000E+00  0.0000E+00  0.0000E+00  0.0000E+00  0.0000E+00  0.0000E+00  0.0000E+00  0.0000E+00  0.0000E+00  0.0000E+00  0.0000E+00  0.0000E+00  0.0000E+00  0.0000E+00  0.0000E+00  0.0000E+00
    -48.263  0.0000E+00  0.0000E+00  0.0000E+00  0.0000E+00  0.0000E+00  0.0000E+00  0.0000E+00  0.0000E+00  0.0000E+00  0.0000E+00  0.0000E+00  0.0000E+00  0.0000E+00  0.0000E+00  0.0000E+00  0.0000E+00  0.0000E+00  0.0000E+00
    -47.995  0.0000E+00  0.0000E+00  0.0000E+00  0.0000E+00  0.0000E+00  0.0000E+00  0.0000E+00  0.0000E+00  0.0000E+00  0.0000E+00  0.0000E+00  0.0000E+00  0.0000E+00  0.0000E+00  0.0000E+00  0.0000E+00  0.0000E+00  0.0000E+00
    -47.727  0.0000E+00  0.0000E+00  0.0000E+00  0.0000E+00  0.0000E+00  0.0000E+00  0.0000E+00  0.0000E+00  0.0000E+00  0.0000E+00  0.0000E+00  0.0000E+00  0.0000E+00  0.0000E+00  0.0000E+00  0.0000E+00  0.0000E+00  0.0000E+00
    -47.458  0.0000E+00  0.0000E+00  0.0000E+00  0.0000E+00  0.0000E+00  0.0000E+00  0.0000E+00  0.0000E+00  0.0000E+00  0.0000E+00  0.0000E+00  0.0000E+00  0.0000E+00  0.0000E+00  0.0000E+00  0.0000E+00  0.0000E+00  0.0000E+00
    -47.190  0.0000E+00  0.0000E+00  0.0000E+00  0.0000E+00  0.0000E+00  0.0000E+00  0.0000E+00  0.0000E+00  0.0000E+00  0.0000E+00  0.0000E+00  0.0000E+00  0.0000E+00  0.0000E+00  0.0000E+00  0.0000E+00  0.0000E+00  0.0000E+00
    -46.922  0.0000E+00  0.0000E+00  0.0000E+00  0.0000E+00  0.0000E+00  0.0000E+00  0.0000E+00  0.0000E+00  0.0000E+00  0.0000E+00  0.0000E+00  0.0000E+00  0.0000E+00  0.0000E+00  0.0000E+00  0.0000E+00  0.0000E+00  0.0000E+00
    -46.653  0.0000E+00  0.0000E+00  0.0000E+00  0.0000E+00  0.0000E+00  0.0000E+00  0.0000E+00  0.0000E+00  0.0000E+00  0.0000E+00  0.0000E+00  0.0000E+00  0.0000E+00  0.0000E+00  0.0000E+00  0.0000E+00  0.0000E+00  0.0000E+00
    -46.385  0.0000E+00  0.0000E+00  0.0000E+00  0.0000E+00  0.0000E+00  0.0000E+00  0.0000E+00  0.0000E+00  0.0000E+00  0.0000E+00  0.0000E+00  0.0000E+00  0.0000E+00  0.0000E+00  0.0000E+00  0.0000E+00  0.0000E+00  0.0000E+00
    -46.117  0.0000E+00  0.0000E+00  0.0000E+00  0.0000E+00  0.0000E+00  0.0000E+00  0.0000E+00  0.0000E+00  0.0000E+00  0.0000E+00  0.0000E+00  0.0000E+00  0.0000E+00  0.0000E+00  0.0000E+00  0.0000E+00  0.0000E+00  0.0000E+00
    -45.848  0.0000E+00  0.0000E+00  0.0000E+00  0.0000E+00  0.0000E+00  0.0000E+00  0.0000E+00  0.0000E+00  0.0000E+00  0.0000E+00  0.0000E+00  0.0000E+00  0.0000E+00  0.0000E+00  0.0000E+00  0.0000E+00  0.0000E+00  0.0000E+00
    -45.580  0.0000E+00  0.0000E+00  0.0000E+00  0.0000E+00  0.0000E+00  0.0000E+00  0.0000E+00  0.0000E+00  0.0000E+00  0.0000E+00  0.0000E+00  0.0000E+00  0.0000E+00  0.0000E+00  0.0000E+00  0.0000E+00  0.0000E+00  0.0000E+00
    -45.312  0.0000E+00  0.0000E+00  0.0000E+00  0.0000E+00  0.0000E+00  0.0000E+00  0.0000E+00  0.0000E+00  0.0000E+00  0.0000E+00  0.0000E+00  0.0000E+00  0.0000E+00  0.0000E+00  0.0000E+00  0.0000E+00  0.0000E+00  0.0000E+00
    -45.044  0.0000E+00  0.0000E+00  0.0000E+00  0.0000E+00  0.0000E+00  0.0000E+00  0.0000E+00  0.0000E+00  0.0000E+00  0.0000E+00  0.0000E+00  0.0000E+00  0.0000E+00  0.0000E+00  0.0000E+00  0.0000E+00  0.0000E+00  0.0000E+00
    -44.775  0.0000E+00  0.0000E+00  0.0000E+00  0.0000E+00  0.0000E+00  0.0000E+00  0.0000E+00  0.0000E+00  0.0000E+00  0.0000E+00  0.0000E+00  0.0000E+00  0.0000E+00  0.0000E+00  0.0000E+00  0.0000E+00  0.0000E+00  0.0000E+00
    -44.507  0.0000E+00  0.0000E+00  0.0000E+00  0.0000E+00  0.0000E+00  0.0000E+00  0.0000E+00  0.0000E+00  0.0000E+00  0.0000E+00  0.0000E+00  0.0000E+00  0.0000E+00  0.0000E+00  0.0000E+00  0.0000E+00  0.0000E+00  0.0000E+00
    -44.239  0.0000E+00  0.0000E+00  0.0000E+00  0.0000E+00  0.0000E+00  0.0000E+00  0.0000E+00  0.0000E+00  0.0000E+00  0.0000E+00  0.0000E+00  0.0000E+00  0.0000E+00  0.0000E+00  0.0000E+00  0.0000E+00  0.0000E+00  0.0000E+00
    -43.970  0.0000E+00  0.0000E+00  0.0000E+00  0.0000E+00  0.0000E+00  0.0000E+00  0.0000E+00  0.0000E+00  0.0000E+00  0.0000E+00  0.0000E+00  0.0000E+00  0.0000E+00  0.0000E+00  0.0000E+00  0.0000E+00  0.0000E+00  0.0000E+00
    -43.702  0.0000E+00  0.0000E+00  0.0000E+00  0.0000E+00  0.0000E+00  0.0000E+00  0.0000E+00  0.0000E+00  0.0000E+00  0.0000E+00  0.0000E+00  0.0000E+00  0.0000E+00  0.0000E+00  0.0000E+00  0.0000E+00  0.0000E+00  0.0000E+00