   16   16   99    2
  0.1283753E+02  0.5828363E-09  0.5826912E-09  0.6048066E-09  0.5000000E-15
  1.000000000000000E-004
  CAR 
 unknown system                          
    137     32     96
 
  0.1250000E+00  0.1250000E+00  0.1250000E+00  0.3125000E-01
      1        -53.458873      -53.458871   1.000000   1.000000
      2        -53.454009      -53.454007   1.000000   1.000000
      3        -53.445222      -53.445220   1.000000   1.000000
      4        -53.421418      -53.421418   1.000000   1.000000
      5        -53.419503      -53.419503   1.000000   1.000000
      6        -53.390256      -53.390255   1.000000   1.000000
      7        -53.387187      -53.387185   1.000000   1.000000
      8        -53.332128      -53.332129   1.000000   1.000000
      9        -53.303709      -53.303709   1.000000   1.000000
     10        -32.066541      -32.066544   1.000000   1.000000
     11        -32.064336      -32.064340   1.000000   1.000000
     12        -31.924113      -31.924114   1.000000   1.000000
     13        -31.922408      -31.922408   1.000000   1.000000
     14        -31.911782      -31.911783   1.000000   1.000000
     15        -31.911175      -31.911175   1.000000   1.000000
     16        -31.903586      -31.903588   1.000000   1.000000
     17        -31.902314      -31.902314   1.000000   1.000000
     18        -31.892505      -31.892506   1.000000   1.000000
     19        -31.892119      -31.892119   1.000000   1.000000
     20        -31.888389      -31.888392   1.000000   1.000000
     21        -31.888123      -31.888126   1.000000   1.000000
     22          0.006505        0.006506   1.000000   1.000000
     23          3.003565        3.003565   1.000000   1.000000
     24          3.083544        3.083546   1.000000   1.000000
     25          3.367203        3.367204   1.000000   1.000000
     26          4.192576        4.192576   1.000000   1.000000
     27          4.353030        4.353030   1.000000   1.000000
     28          4.514798        4.514799   1.000000   1.000000
     29          4.668349        4.668349   1.000000   1.000000
     30          4.752644        4.752645   1.000000   1.000000
     31          5.156827        5.156827   1.000000   1.000000
     32          5.591535        5.591535   1.000000   1.000000
     33          5.823336        5.823336   1.000000   1.000000
     34          5.889202        5.889203   1.000000   1.000000
     35          6.214311        6.214311   1.000000   1.000000
     36          6.282928        6.282927   1.000000   1.000000
     37          6.829571        6.829571   1.000000   1.000000
     38          6.948210        6.948209   1.000000   1.000000
     39          7.143636        7.143637   1.000000   1.000000
     40          7.339104        7.339103   1.000000   1.000000
     41          7.511225        7.511226   1.000000   1.000000
     42          7.526983        7.526982   1.000000   1.000000
     43          7.723999        7.723999   1.000000   1.000000
     44          7.754517        7.754517   1.000000   1.000000
     45          7.845537        7.845537   1.000000   1.000000
     46          7.889437        7.889437   1.000000   1.000000
     47          8.005023        8.005023   1.000000   1.000000
     48          8.009734        8.009734   1.000000   1.000000
     49          8.077695        8.077694   1.000000   1.000000
     50          8.088954        8.088955   1.000000   1.000000
     51          8.328773        8.328773   1.000000   1.000000
     52          8.362837        8.362837   1.000000   1.000000
     53          8.493416        8.493416   1.000000   1.000000
     54          8.511001        8.511002   1.000000   1.000000
     55          8.680175        8.680175   1.000000   1.000000
     56          8.724304        8.724303   1.000000   1.000000
     57          8.756966        8.756965   1.000000   1.000000
     58          8.960310        8.960309   1.000000   1.000000
     59          9.042143        9.042142   1.000000   1.000000
     60          9.168386        9.168386   1.000000   1.000000
     61          9.234935        9.234935   1.000000   1.000000
     62          9.403796        9.403794   1.000000   1.000000
     63          9.422712        9.422711   1.000000   1.000000
     64          9.485606        9.485606   1.000000   1.000000
     65          9.619154        9.619153   1.000000   1.000000
     66          9.654742        9.654739   1.000000   1.000000
     67          9.740218        9.740216   1.000000   1.000000
     68         10.007540       10.007539   1.000000   1.000000
     69         10.044794       10.044794   0.747117   0.747117
     70         10.484748       10.484748   0.000000   0.000000
     71         10.760384       10.760384   0.000000   0.000000
     72         11.134870       11.134867   0.000000   0.000000
     73         11.345934       11.345932   0.000000   0.000000
     74         11.561760       11.561759   0.000000   0.000000
     75         11.897982       11.897982   0.000000   0.000000
     76         13.408638       13.408638   0.000000   0.000000
     77         13.461284       13.461284   0.000000   0.000000
     78         13.542535       13.542536   0.000000   0.000000
     79         13.769866       13.769866   0.000000   0.000000
     80         13.914118       13.914118   0.000000   0.000000
     81         14.123079       14.123078   0.000000   0.000000
     82         14.777392       14.777393   0.000000   0.000000
     83         14.996491       14.996492   0.000000   0.000000
     84         15.073923       15.073922   0.000000   0.000000
     85         15.306217       15.306217   0.000000   0.000000
     86         15.945991       15.945992   0.000000   0.000000
     87         16.338684       16.338686   0.000000   0.000000
     88         16.349137       16.349138   0.000000   0.000000
     89         16.941933       16.941933   0.000000   0.000000
     90         17.526849       17.526850   0.000000   0.000000
     91         17.646781       17.646782   0.000000   0.000000
     92         17.825538       17.825539   0.000000   0.000000
     93         18.189176       18.189178   0.000000   0.000000
     94         18.555916       18.555917   0.000000   0.000000
     95         19.437658       19.437641   0.000000   0.000000
     96         19.718399       19.718481   0.000000   0.000000
 
  0.1250000E+00 -0.1250000E+00 -0.1250000E+00  0.3125000E-01
      1        -53.458890      -53.458889   1.000000   1.000000
      2        -53.453992      -53.453990   1.000000   1.000000
      3        -53.445222      -53.445221   1.000000   1.000000
      4        -53.421435      -53.421435   1.000000   1.000000
      5        -53.419486      -53.419486   1.000000   1.000000
      6        -53.390273      -53.390272   1.000000   1.000000
      7        -53.387170      -53.387168   1.000000   1.000000
      8        -53.332128      -53.332129   1.000000   1.000000
      9        -53.303709      -53.303709   1.000000   1.000000
     10        -32.066541      -32.066545   1.000000   1.000000
     11        -32.064336      -32.064339   1.000000   1.000000
     12        -31.923713      -31.923716   1.000000   1.000000
     13        -31.922809      -31.922807   1.000000   1.000000
     14        -31.912253      -31.912253   1.000000   1.000000
     15        -31.910705      -31.910705   1.000000   1.000000
     16        -31.903375      -31.903378   1.000000   1.000000
     17        -31.902523      -31.902522   1.000000   1.000000
     18        -31.892839      -31.892839   1.000000   1.000000
     19        -31.891785      -31.891786   1.000000   1.000000
     20        -31.888389      -31.888392   1.000000   1.000000
     21        -31.888123      -31.888126   1.000000   1.000000
     22          0.006462        0.006463   1.000000   1.000000
     23          3.003537        3.003538   1.000000   1.000000
     24          3.083639        3.083640   1.000000   1.000000
     25          3.367658        3.367658   1.000000   1.000000
     26          4.192260        4.192261   1.000000   1.000000
     27          4.353476        4.353477   1.000000   1.000000
     28          4.514550        4.514551   1.000000   1.000000
     29          4.668159        4.668159   1.000000   1.000000
     30          4.752239        4.752240   1.000000   1.000000
     31          5.156787        5.156787   1.000000   1.000000
     32          5.590865        5.590866   1.000000   1.000000
     33          5.824467        5.824467   1.000000   1.000000
     34          5.888769        5.888770   1.000000   1.000000
     35          6.214185        6.214184   1.000000   1.000000
     36          6.282842        6.282841   1.000000   1.000000
     37          6.829681        6.829681   1.000000   1.000000
     38          6.948350        6.948350   1.000000   1.000000
     39          7.143707        7.143708   1.000000   1.000000
     40          7.339049        7.339049   1.000000   1.000000
     41          7.510596        7.510596   1.000000   1.000000
     42          7.527044        7.527043   1.000000   1.000000
     43          7.725146        7.725147   1.000000   1.000000
     44          7.754224        7.754224   1.000000   1.000000
     45          7.846459        7.846459   1.000000   1.000000
     46          7.889366        7.889366   1.000000   1.000000
     47          8.003738        8.003738   1.000000   1.000000
     48          8.010423        8.010423   1.000000   1.000000
     49          8.078453        8.078453   1.000000   1.000000
     50          8.088135        8.088134   1.000000   1.000000
     51          8.330039        8.330039   1.000000   1.000000
     52          8.363085        8.363085   1.000000   1.000000
     53          8.492130        8.492129   1.000000   1.000000
     54          8.511338        8.511340   1.000000   1.000000
     55          8.679239        8.679238   1.000000   1.000000
     56          8.725667        8.725666   1.000000   1.000000
     57          8.756348        8.756347   1.000000   1.000000
     58          8.958472        8.958471   1.000000   1.000000
     59          9.043695        9.043695   1.000000   1.000000
     60          9.168489        9.168490   1.000000   1.000000
     61          9.234800        9.234800   1.000000   1.000000
     62          9.403281        9.403280   1.000000   1.000000
     63          9.423187        9.423186   1.000000   1.000000
     64          9.485196        9.485195   1.000000   1.000000
     65          9.616947        9.616945   1.000000   1.000000
     66          9.656949        9.656947   1.000000   1.000000
     67          9.740759        9.740757   1.000000   1.000000
     68         10.007072       10.007071   1.000000   1.000000
     69         10.045129       10.045129   0.801194   0.801194
     70         10.484942       10.484942   0.000000   0.000000
     71         10.760331       10.760330   0.000000   0.000000
     72         11.134770       11.134766   0.000000   0.000000
     73         11.345790       11.345788   0.000000   0.000000
     74         11.561573       11.561572   0.000000   0.000000
     75         11.896384       11.896384   0.000000   0.000000
     76         13.410660       13.410660   0.000000   0.000000
     77         13.459757       13.459758   0.000000   0.000000
     78         13.543875       13.543875   0.000000   0.000000
     79         13.770633       13.770633   0.000000   0.000000
     80         13.914343       13.914343   0.000000   0.000000
     81         14.123202       14.123202   0.000000   0.000000
     82         14.777029       14.777029   0.000000   0.000000
     83         14.996627       14.996628   0.000000   0.000000
     84         15.073870       15.073870   0.000000   0.000000
     85         15.304555       15.304557   0.000000   0.000000
     86         15.946359       15.946361   0.000000   0.000000
     87         16.339060       16.339060   0.000000   0.000000
     88         16.351245       16.351246   0.000000   0.000000
     89         16.939744       16.939745   0.000000   0.000000
     90         17.526403       17.526404   0.000000   0.000000
     91         17.647149       17.647151   0.000000   0.000000
     92         17.825385       17.825387   0.000000   0.000000
     93         18.189716       18.189717   0.000000   0.000000
     94         18.555557       18.555559   0.000000   0.000000
     95         19.436600       19.436597   0.000000   0.000000
     96         19.718764       19.718305   0.000000   0.000000
 
  0.3750000E+00  0.1250000E+00  0.1250000E+00  0.3125000E-01
      1        -53.458926      -53.458925   1.000000   1.000000
      2        -53.454065      -53.454063   1.000000   1.000000
      3        -53.445249      -53.445247   1.000000   1.000000
      4        -53.421476      -53.421475   1.000000   1.000000
      5        -53.419555      -53.419556   1.000000   1.000000
      6        -53.390312      -53.390311   1.000000   1.000000
      7        -53.387243      -53.387241   1.000000   1.000000
      8        -53.332148      -53.332149   1.000000   1.000000
      9        -53.303743      -53.303742   1.000000   1.000000
     10        -32.065915      -32.065918   1.000000   1.000000
     11        -32.064970      -32.064974   1.000000   1.000000
     12        -31.924303      -31.924305   1.000000   1.000000
     13        -31.921359      -31.921359   1.000000   1.000000
     14        -31.913278      -31.913279   1.000000   1.000000
     15        -31.910881      -31.910881   1.000000   1.000000
     16        -31.903940      -31.903942   1.000000   1.000000
     17        -31.901823      -31.901823   1.000000   1.000000
     18        -31.893438      -31.893438   1.000000   1.000000
     19        -31.891837      -31.891837   1.000000   1.000000
     20        -31.888387      -31.888390   1.000000   1.000000
     21        -31.888128      -31.888131   1.000000   1.000000
     22          0.592398        0.592399   1.000000   1.000000
     23          1.704403        1.704404   1.000000   1.000000
     24          3.372746        3.372747   1.000000   1.000000
     25          3.631242        3.631243   1.000000   1.000000
     26          3.851689        3.851690   1.000000   1.000000
     27          4.183806        4.183807   1.000000   1.000000
     28          4.641249        4.641250   1.000000   1.000000
     29          4.931030        4.931030   1.000000   1.000000
     30          5.178973        5.178973   1.000000   1.000000
     31          5.262432        5.262432   1.000000   1.000000
     32          5.739929        5.739930   1.000000   1.000000
     33          5.805317        5.805317   1.000000   1.000000
     34          6.180464        6.180465   1.000000   1.000000
     35          6.259783        6.259783   1.000000   1.000000
     36          6.266229        6.266229   1.000000   1.000000
     37          6.623776        6.623777   1.000000   1.000000
     38          6.735812        6.735811   1.000000   1.000000
     39          6.928955        6.928955   1.000000   1.000000
     40          7.129419        7.129420   1.000000   1.000000
     41          7.309538        7.309539   1.000000   1.000000
     42          7.574153        7.574152   1.000000   1.000000
     43          7.611411        7.611411   1.000000   1.000000
     44          7.759459        7.759459   1.000000   1.000000
     45          7.791468        7.791468   1.000000   1.000000
     46          7.894118        7.894117   1.000000   1.000000
     47          7.993244        7.993244   1.000000   1.000000
     48          8.049737        8.049738   1.000000   1.000000
     49          8.072613        8.072613   1.000000   1.000000
     50          8.222782        8.222780   1.000000   1.000000
     51          8.373654        8.373653   1.000000   1.000000
     52          8.443325        8.443325   1.000000   1.000000
     53          8.544586        8.544587   1.000000   1.000000
     54          8.605533        8.605533   1.000000   1.000000
     55          8.684524        8.684525   1.000000   1.000000
     56          8.760469        8.760468   1.000000   1.000000
     57          8.779522        8.779521   1.000000   1.000000
     58          8.904797        8.904795   1.000000   1.000000
     59          8.935969        8.935969   1.000000   1.000000
     60          9.019750        9.019747   1.000000   1.000000
     61          9.053535        9.053535   1.000000   1.000000
     62          9.181186        9.181184   1.000000   1.000000
     63          9.419190        9.419189   1.000000   1.000000
     64          9.445306        9.445304   1.000000   1.000000
     65          9.502396        9.502395   1.000000   1.000000
     66          9.621626        9.621625   1.000000   1.000000
     67          9.709189        9.709188   1.000000   1.000000
     68          9.965757        9.965758   1.000000   1.000000
     69         10.356264       10.356263   0.240363   0.240364
     70         10.809059       10.809059   0.000000   0.000000
     71         10.864390       10.864390   0.000000   0.000000
     72         11.100256       11.100255   0.000000   0.000000
     73         11.137073       11.137074   0.000000   0.000000
     74         11.663276       11.663274   0.000000   0.000000
     75         11.983743       11.983743   0.000000   0.000000
     76         12.389035       12.389035   0.000000   0.000000
     77         13.532653       13.532653   0.000000   0.000000
     78         13.842309       13.842309   0.000000   0.000000
     79         14.007134       14.007133   0.000000   0.000000
     80         14.560662       14.560662   0.000000   0.000000
     81         14.745545       14.745546   0.000000   0.000000
     82         14.892971       14.892971   0.000000   0.000000
     83         15.034363       15.034364   0.000000   0.000000
     84         15.805006       15.805007   0.000000   0.000000
     85         15.980105       15.980105   0.000000   0.000000
     86         16.276711       16.276712   0.000000   0.000000
     87         16.333741       16.333741   0.000000   0.000000
     88         16.523331       16.523331   0.000000   0.000000
     89         17.072006       17.072009   0.000000   0.000000
     90         17.105821       17.105820   0.000000   0.000000
     91         17.261518       17.261518   0.000000   0.000000
     92         18.174725       18.174720   0.000000   0.000000
     93         18.225354       18.225363   0.000000   0.000000
     94         18.309246       18.309240   0.000000   0.000000
     95         18.661881       18.661800   0.000000   0.000000
     96         18.914180       18.915895   0.000000   0.000000
 
  0.3750000E+00 -0.1250000E+00 -0.1250000E+00  0.3125000E-01
      1        -53.458948      -53.458947   1.000000   1.000000
      2        -53.454044      -53.454042   1.000000   1.000000
      3        -53.445249      -53.445247   1.000000   1.000000
      4        -53.421496      -53.421496   1.000000   1.000000
      5        -53.419535      -53.419536   1.000000   1.000000
      6        -53.390335      -53.390334   1.000000   1.000000
      7        -53.387220      -53.387218   1.000000   1.000000
      8        -53.332148      -53.332149   1.000000   1.000000
      9        -53.303743      -53.303742   1.000000   1.000000
     10        -32.065916      -32.065920   1.000000   1.000000
     11        -32.064969      -32.064972   1.000000   1.000000
     12        -31.924095      -31.924097   1.000000   1.000000
     13        -31.921569      -31.921568   1.000000   1.000000
     14        -31.913495      -31.913495   1.000000   1.000000
     15        -31.910665      -31.910665   1.000000   1.000000
     16        -31.903822      -31.903824   1.000000   1.000000
     17        -31.901940      -31.901940   1.000000   1.000000
     18        -31.893582      -31.893582   1.000000   1.000000
     19        -31.891693      -31.891693   1.000000   1.000000
     20        -31.888387      -31.888390   1.000000   1.000000
     21        -31.888128      -31.888131   1.000000   1.000000
     22          0.592274        0.592275   1.000000   1.000000
     23          1.704589        1.704590   1.000000   1.000000
     24          3.372764        3.372765   1.000000   1.000000
     25          3.631865        3.631866   1.000000   1.000000
     26          3.851645        3.851646   1.000000   1.000000
     27          4.183131        4.183132   1.000000   1.000000
     28          4.641540        4.641541   1.000000   1.000000
     29          4.930684        4.930684   1.000000   1.000000
     30          5.178300        5.178301   1.000000   1.000000
     31          5.262263        5.262264   1.000000   1.000000
     32          5.740387        5.740387   1.000000   1.000000
     33          5.805503        5.805504   1.000000   1.000000
     34          6.180780        6.180781   1.000000   1.000000
     35          6.259701        6.259700   1.000000   1.000000
     36          6.266104        6.266104   1.000000   1.000000
     37          6.623554        6.623554   1.000000   1.000000
     38          6.736093        6.736091   1.000000   1.000000
     39          6.928912        6.928912   1.000000   1.000000
     40          7.129710        7.129710   1.000000   1.000000
     41          7.309408        7.309408   1.000000   1.000000
     42          7.573929        7.573928   1.000000   1.000000
     43          7.611662        7.611662   1.000000   1.000000
     44          7.760161        7.760161   1.000000   1.000000
     45          7.790550        7.790550   1.000000   1.000000
     46          7.893859        7.893859   1.000000   1.000000
     47          7.994171        7.994171   1.000000   1.000000
     48          8.049735        8.049735   1.000000   1.000000
     49          8.072843        8.072843   1.000000   1.000000
     50          8.222526        8.222525   1.000000   1.000000
     51          8.373788        8.373788   1.000000   1.000000
     52          8.443997        8.443997   1.000000   1.000000
     53          8.543169        8.543169   1.000000   1.000000
     54          8.606112        8.606111   1.000000   1.000000
     55          8.684889        8.684890   1.000000   1.000000
     56          8.760406        8.760405   1.000000   1.000000
     57          8.779170        8.779169   1.000000   1.000000
     58          8.904397        8.904396   1.000000   1.000000
     59          8.936176        8.936175   1.000000   1.000000
     60          9.019536        9.019534   1.000000   1.000000
     61          9.053983        9.053983   1.000000   1.000000
     62          9.180803        9.180802   1.000000   1.000000
     63          9.419229        9.419228   1.000000   1.000000
     64          9.445145        9.445143   1.000000   1.000000
     65          9.501770        9.501768   1.000000   1.000000
     66          9.621850        9.621849   1.000000   1.000000
     67          9.710092        9.710092   1.000000   1.000000
     68          9.966527        9.966528   1.000000   1.000000
     69         10.355434       10.355433   0.081447   0.081448
     70         10.808198       10.808198   0.000000   0.000000
     71         10.864484       10.864484   0.000000   0.000000
     72         11.100303       11.100302   0.000000   0.000000
     73         11.137035       11.137035   0.000000   0.000000
     74         11.662853       11.662852   0.000000   0.000000
     75         11.983298       11.983297   0.000000   0.000000
     76         12.389504       12.389503   0.000000   0.000000
     77         13.533414       13.533415   0.000000   0.000000
     78         13.842152       13.842153   0.000000   0.000000
     79         14.007210       14.007210   0.000000   0.000000
     80         14.561756       14.561756   0.000000   0.000000
     81         14.744961       14.744961   0.000000   0.000000
     82         14.892878       14.892878   0.000000   0.000000
     83         15.036301       15.036301   0.000000   0.000000
     84         15.804837       15.804838   0.000000   0.000000
     85         15.981388       15.981389   0.000000   0.000000
     86         16.275608       16.275609   0.000000   0.000000
     87         16.332324       16.332325   0.000000   0.000000
     88         16.521224       16.521225   0.000000   0.000000
     89         17.072144       17.072149   0.000000   0.000000
     90         17.105820       17.105821   0.000000   0.000000
     91         17.261983       17.261984   0.000000   0.000000
     92         18.173632       18.173633   0.000000   0.000000
     93         18.225796       18.225791   0.000000   0.000000
     94         18.309550       18.309546   0.000000   0.000000
     95         18.660889       18.660938   0.000000   0.000000
     96         18.915097       18.915142   0.000000   0.000000
 
  0.1250000E+00  0.3750000E+00  0.1250000E+00  0.3125000E-01
      1        -53.458910      -53.458909   1.000000   1.000000
      2        -53.454045      -53.454043   1.000000   1.000000
      3        -53.445249      -53.445247   1.000000   1.000000
      4        -53.421453      -53.421452   1.000000   1.000000
      5        -53.419539      -53.419540   1.000000   1.000000
      6        -53.390292      -53.390291   1.000000   1.000000
      7        -53.387226      -53.387224   1.000000   1.000000
      8        -53.332148      -53.332149   1.000000   1.000000
      9        -53.303742      -53.303741   1.000000   1.000000
     10        -32.065915      -32.065918   1.000000   1.000000
     11        -32.064970      -32.064974   1.000000   1.000000
     12        -31.924249      -31.924250   1.000000   1.000000
     13        -31.921413      -31.921414   1.000000   1.000000
     14        -31.913274      -31.913275   1.000000   1.000000
     15        -31.910885      -31.910885   1.000000   1.000000
     16        -31.903865      -31.903866   1.000000   1.000000
     17        -31.901898      -31.901899   1.000000   1.000000
     18        -31.893429      -31.893430   1.000000   1.000000
     19        -31.891846      -31.891846   1.000000   1.000000
     20        -31.888389      -31.888392   1.000000   1.000000
     21        -31.888126      -31.888129   1.000000   1.000000
     22          0.592593        0.592594   1.000000   1.000000
     23          1.704929        1.704930   1.000000   1.000000
     24          3.372746        3.372747   1.000000   1.000000
     25          3.630611        3.630612   1.000000   1.000000
     26          3.852124        3.852125   1.000000   1.000000
     27          4.183324        4.183325   1.000000   1.000000
     28          4.640493        4.640493   1.000000   1.000000
     29          4.930909        4.930909   1.000000   1.000000
     30          5.177992        5.177993   1.000000   1.000000
     31          5.262537        5.262537   1.000000   1.000000
     32          5.739856        5.739856   1.000000   1.000000
     33          5.805820        5.805820   1.000000   1.000000
     34          6.180393        6.180393   1.000000   1.000000
     35          6.259924        6.259924   1.000000   1.000000
     36          6.267362        6.267363   1.000000   1.000000
     37          6.623752        6.623753   1.000000   1.000000
     38          6.736575        6.736575   1.000000   1.000000
     39          6.928878        6.928879   1.000000   1.000000
     40          7.129228        7.129228   1.000000   1.000000
     41          7.309607        7.309606   1.000000   1.000000
     42          7.574835        7.574835   1.000000   1.000000
     43          7.611700        7.611700   1.000000   1.000000
     44          7.759596        7.759596   1.000000   1.000000
     45          7.791596        7.791596   1.000000   1.000000
     46          7.894439        7.894439   1.000000   1.000000
     47          7.993294        7.993294   1.000000   1.000000
     48          8.050209        8.050209   1.000000   1.000000
     49          8.072965        8.072965   1.000000   1.000000
     50          8.223239        8.223240   1.000000   1.000000
     51          8.374003        8.374002   1.000000   1.000000
     52          8.443278        8.443278   1.000000   1.000000
     53          8.544178        8.544179   1.000000   1.000000
     54          8.604987        8.604987   1.000000   1.000000
     55          8.683631        8.683631   1.000000   1.000000
     56          8.760139        8.760139   1.000000   1.000000
     57          8.779516        8.779515   1.000000   1.000000
     58          8.905133        8.905134   1.000000   1.000000
     59          8.935950        8.935949   1.000000   1.000000
     60          9.020308        9.020308   1.000000   1.000000
     61          9.053360        9.053360   1.000000   1.000000
     62          9.181562        9.181561   1.000000   1.000000
     63          9.417892        9.417890   1.000000   1.000000
     64          9.444729        9.444729   1.000000   1.000000
     65          9.502355        9.502354   1.000000   1.000000
     66          9.620442        9.620440   1.000000   1.000000
     67          9.709600        9.709598   1.000000   1.000000
     68          9.965221        9.965220   1.000000   1.000000
     69         10.356483       10.356483   0.240140   0.240140
     70         10.808238       10.808237   0.000000   0.000000
     71         10.863196       10.863196   0.000000   0.000000
     72         11.100145       11.100144   0.000000   0.000000
     73         11.136253       11.136250   0.000000   0.000000
     74         11.662819       11.662817   0.000000   0.000000
     75         11.985613       11.985613   0.000000   0.000000
     76         12.388602       12.388602   0.000000   0.000000