Automatically generated mesh
      32
Reciprocal lattice
    0.12500000000000    0.12500000000000    0.12500000000000             2
    0.12500000000000   -0.12500000000000   -0.12500000000000             2
    0.37500000000000    0.12500000000000    0.12500000000000             2
    0.37500000000000   -0.12500000000000   -0.12500000000000             2
    0.12500000000000    0.37500000000000    0.12500000000000             2
    0.12500000000000   -0.37500000000000   -0.12500000000000             2
    0.37500000000000    0.37500000000000    0.12500000000000             2
    0.37500000000000   -0.37500000000000   -0.12500000000000             2
    0.12500000000000   -0.37500000000000    0.12500000000000             2
    0.12500000000000    0.37500000000000   -0.12500000000000             2
    0.37500000000000   -0.37500000000000    0.12500000000000             2
    0.37500000000000    0.37500000000000   -0.12500000000000             2
    0.12500000000000   -0.12500000000000    0.12500000000000             2
    0.12500000000000    0.12500000000000   -0.12500000000000             2
    0.37500000000000   -0.12500000000000    0.12500000000000             2
    0.37500000000000    0.12500000000000   -0.12500000000000             2
    0.12500000000000    0.12500000000000    0.37500000000000             2
    0.12500000000000   -0.12500000000000   -0.37500000000000             2
    0.37500000000000    0.12500000000000    0.37500000000000             2
    0.37500000000000   -0.12500000000000   -0.37500000000000             2
    0.12500000000000    0.37500000000000    0.37500000000000             2
    0.12500000000000   -0.37500000000000   -0.37500000000000             2
    0.37500000000000    0.37500000000000    0.37500000000000             2
    0.37500000000000   -0.37500000000000   -0.37500000000000             2
    0.12500000000000   -0.37500000000000    0.37500000000000             2
    0.12500000000000    0.37500000000000   -0.37500000000000             2
    0.37500000000000   -0.37500000000000    0.37500000000000             2
    0.37500000000000    0.37500000000000   -0.37500000000000             2
    0.12500000000000   -0.12500000000000    0.37500000000000             2
    0.12500000000000    0.12500000000000   -0.37500000000000             2
    0.37500000000000   -0.12500000000000    0.37500000000000             2
    0.37500000000000    0.12500000000000   -0.37500000000000             2
Tetrahedra
       192    0.00260416666667
         2         1         3         7        17
         2         1         5         7        17
         2         5         7        17        21
         2         3         7        17        19
         2         7        17        19        23
         2         7        17        21        23
         2         3         4         8        19
         2         3         7         8        19
         2         7         8        19        23
         2         4         8        19        20
         2         8        19        20        24
         2         8        19        23        24
         2         2         4         6        20
         2         4         6         8        20
         2         6         8        20        24
         2         2         6        18        20
         2         6        18        20        22
         2         6        20        22        24
         2         1         2         5        18
         2         2         5         6        18
         2         5         6        18        22
         2         1         5        17        18
         2         5        17        18        21
         2         5        18        21        22
         2         5         7        11        21
         2         5         9        11        21
         2         9        11        21        25
         2         7        11        21        23
         2        11        21        23        27
         2        11        21        25        27
         2         7         8        12        23
         2         7        11        12        23
         2        11        12        23        27
         2         8        12        23        24
         2        12        23        24        28
         2        12        23        27        28
         2         6         8        10        24
         2         8        10        12        24
         2        10        12        24        28
         2         6        10        22        24
         2        10        22        24        26
         2        10        24        26        28
         2         5         6         9        22
         2         6         9        10        22
         2         9        10        22        26
         2         5         9        21        22
         2         9        21        22        25
         2         9        22        25        26
         2         9        11        15        25
         2         9        13        15        25
         2        13        15        25        29
         2        11        15        25        27
         2        15        25        27        31
         2        15        25        29        31
         2        11        12        16        27
         2        11        15        16        27
         2        15        16        27        31
         2        12        16        27        28
         2        16        27        28        32
         2        16        27        31        32
         2        10        12        14        28
         2        12        14        16        28
         2        14        16        28        32
         2        10        14        26        28
         2        14        26        28        30
         2        14        28        30        32
         2         9        10        13        26
         2        10        13        14        26
         2        13        14        26        30
         2         9        13        25        26
         2        13        25        26        29
         2        13        26        29        30
         2         3        13        15        29
         2         1         3        13        29
         2         1         3        17        29
         2         3        15        29        31
         2         3        19        29        31
         2         3        17        19        29
         2         4        15        16        31
         2         3         4        15        31
         2         3         4        19        31
         2         4        16        31        32
         2         4        20        31        32
         2         4        19        20        31
         2         2        14        16        32
         2         2         4        16        32
         2         2         4        20        32
         2         2        14        30        32
         2         2        18        30        32
         2         2        18        20        32
         2         1        13        14        30
         2         1         2        14        30
         2         1         2        18        30
         2         1        13        29        30
         2         1        17        29        30
         2         1        17        18        30
         2        17        19        23        30
         2        17        21        23        30
         2        21        23        26        30
         2        19        23        30        32
         2        23        28        30        32
         2        23        26        28        30
         2        19        20        24        32
         2        19        23        24        32
         2        23        24        28        32
         2        20        24        31        32
         2        24        27        31        32
         2        24        27        28        32
         2        18        20        22        31
         2        20        22        24        31
         2        22        24        27        31
         2        18        22        29        31
         2        22        25        29        31
         2        22        25        27        31
         2        17        18        21        29
         2        18        21        22        29
         2        21        22        25        29
         2        17        21        29        30
         2        21        26        29        30
         2        21        25        26        29
         2        21        23        26        27
         2        21        25        26        27
         2        22        25        26        27
         2        23        26        27        28
         2        24        26        27        28
         2        22        24        26        27
         2        23        24        28        28
         2        23        27        28        28
         2        24        27        28        28
         2        21        22        25        25
         2        22        25        25        26
         2        21        25        25        26
         2        18        19        29        31
         2        17        18        19        29
         2        17        18        19        30
         2        18        19        20        31
         2        18        19        20        32
         2        18        19        30        32
         2        20        20        31        32
         2        19        20        20        31
         2        19        20        20        32
         2        17        17        29        30
         2        17        17        18        30
         2        17        17        18        29
         2         1        12        14        16
         2         1        10        12        14
         2         1         5        10        12
         2         1         3        12        16
         2         1         3         7        12
         2         1         5         7        12
         2         3        11        15        16
         2         3        11        12        16
         2         3         7        11        12
         2         3         4        11        15
         2         3         4         8        11
         2         3         7         8        11
         2         4         9        13        15
         2         4         9        11        15
         2         4         8         9        11
         2         2         4         9        13
         2         2         4         6         9
         2         4         6         8         9
         2         2        10        13        14
         2         2         9        10        13
         2         2         6         9        10
         2         1         2        10        14
         2         1         2         5        10
         2         2         5         6        10
         2         5         8        10        12
         2         5         6         8        10
         2         5         6         8         9
         2         5         7         8        12
         2         5         7         8        11
         2         5         8         9        11
         2         7         7        11        12
         2         7         7         8        12
         2         7         7         8        11
         2         6         6         9        10
         2         5         6         6         9
         2         5         6         6        10
         2         2         4        13        16
         2         2        13        14        16
         2         1        13        14        16
         2         4        13        15        16
         2         3        13        15        16
         2         1         3        13        16
         2         3         4        15        15
         2         4        15        15        16
         2         3        15        15        16
         2         1         2        14        14
         2         1        13        14        14
         2         2        13        14        14
