       N       E                     dE             d eps       ncg     rms          rms(c)
DAV:   1     0.155615264970E+04    0.15562E+04   -0.74695E+04 13952   0.155E+03
DAV:   2     0.218515500415E+02   -0.15343E+04   -0.14531E+04 12304   0.472E+02
DAV:   3    -0.100490536611E+03   -0.12234E+03   -0.10942E+03 13992   0.140E+02
DAV:   4    -0.107165336126E+03   -0.66748E+01   -0.64654E+01 14456   0.312E+01
DAV:   5    -0.107384677327E+03   -0.21934E+00   -0.21891E+00 16496   0.554E+00    0.587E+01
RMM:   6    -0.205717184457E+03   -0.98333E+02   -0.56264E+02 12884   0.102E+02    0.188E+02
RMM:   7    -0.147287901869E+03    0.58429E+02   -0.67345E+01 12288   0.400E+01    0.805E+01
RMM:   8    -0.127701072710E+03    0.19587E+02   -0.94708E+01 12675   0.450E+01    0.508E+01
RMM:   9    -0.104084508734E+03    0.23617E+02   -0.22773E+01 12288   0.215E+01    0.210E+01
RMM:  10    -0.102194304612E+03    0.18902E+01   -0.88366E+00 12496   0.829E+00    0.153E+01
RMM:  11    -0.102164001013E+03    0.30304E-01   -0.29740E+00 12356   0.615E+00    0.110E+01
RMM:  12    -0.101774133742E+03    0.38987E+00   -0.73239E-01 12288   0.429E+00    0.484E+00
RMM:  13    -0.101778536638E+03   -0.44029E-02   -0.26817E-01 11596   0.237E+00    0.438E+00
RMM:  14    -0.101740930555E+03    0.37606E-01   -0.96559E-02 11520   0.156E+00    0.273E+00
RMM:  15    -0.101722807816E+03    0.18123E-01   -0.57521E-02 11891   0.793E-01    0.152E+00
RMM:  16    -0.101720277226E+03    0.25306E-02   -0.17284E-02 11632   0.474E-01    0.857E-01
RMM:  17    -0.101720391293E+03   -0.11407E-03   -0.35575E-03  9839   0.241E-01
   1 F= -.10172039E+03 E0= -.10172039E+03  d E =-.101720E+03  mag=    -0.0464
       N       E                     dE             d eps       ncg     rms          rms(c)
DAV:   1    -0.104167953046E+03   -0.24477E+01   -0.23312E+01 13888   0.355E+01    0.182E+01
RMM:   2    -0.112056740274E+03   -0.78888E+01   -0.48592E+01 12288   0.345E+01    0.376E+01
RMM:   3    -0.101996958895E+03    0.10060E+02   -0.13833E+01 12288   0.207E+01    0.536E+00
RMM:   4    -0.102027705934E+03   -0.30747E-01   -0.13401E+00 12288   0.491E+00    0.757E+00
RMM:   5    -0.101706315595E+03    0.32139E+00   -0.29088E-01 12762   0.249E+00    0.233E+00
RMM:   6    -0.101718927978E+03   -0.12612E-01   -0.97993E-02 11571   0.115E+00    0.254E+00
RMM:   7    -0.101699563071E+03    0.19365E-01   -0.56917E-02 11528   0.111E+00    0.127E+00
RMM:   8    -0.101694692669E+03    0.48704E-02   -0.14610E-02 11488   0.649E-01    0.517E-01
RMM:   9    -0.101694248386E+03    0.44428E-03   -0.19126E-03  9174   0.173E-01
   2 F= -.10169425E+03 E0= -.10169425E+03  d E =0.261429E-01  mag=     0.0003
       N       E                     dE             d eps       ncg     rms          rms(c)
DAV:   1    -0.102597216402E+03   -0.90252E+00   -0.84953E+00 13888   0.218E+01    0.999E+00
RMM:   2    -0.105100369122E+03   -0.25032E+01   -0.10046E+01 12288   0.155E+01    0.249E+01
RMM:   3    -0.102086288382E+03    0.30141E+01   -0.55493E+00 12288   0.132E+01    0.640E+00
RMM:   4    -0.102001608621E+03    0.84680E-01   -0.63242E-01 12534   0.382E+00    0.555E+00
RMM:   5    -0.101754867585E+03    0.24674E+00   -0.13916E-01 12254   0.179E+00    0.205E+00
RMM:   6    -0.101735526188E+03    0.19341E-01   -0.13371E-02 11215   0.494E-01    0.136E+00
RMM:   7    -0.101732250093E+03    0.32761E-02   -0.69393E-03 10661   0.404E-01    0.118E+00
RMM:   8    -0.101725341454E+03    0.69086E-02   -0.13126E-02 11958   0.480E-01    0.393E-01
RMM:   9    -0.101724435295E+03    0.90616E-03   -0.22008E-03  9285   0.204E-01    0.230E-01
RMM:  10    -0.101724242536E+03    0.19276E-03   -0.71585E-04  7366   0.128E-01
   3 F= -.10172424E+03 E0= -.10172424E+03  d E =-.385124E-02  mag=    -0.0000
