 vasp.6.3.0 20Jan22 (build Aug 02 2023 10:54:28) complex                        
  
 executed on             LinuxIFC date 2024.08.21  16:27:21
 running on    4 total cores
 distrk:  each k-point on    4 cores,    1 groups
 distr:  one band on NCORE=   1 cores,    4 groups


--------------------------------------------------------------------------------------------------------


 INCAR:
   ALGO = Fast
   EDIFF = 0.0008
   ENCUT = 520
   IBRION = 2
   ISIF = 3
   ISMEAR = -5
   ISPIN = 2
   LASPH = True
   LMAXMIX = 4
   LORBIT = 11
   LREAL = Auto
   LWAVE = False
   MAGMOM = 9*0.6 3*5.0 4*0.6
   NELM = 100
   NSW = 99
   PREC = Accurate
   SIGMA = 0.05

 POTCAR:    PAW_PBE Al 04Jan2001                  
 POTCAR:    PAW_PBE Co 02Aug2007                  
 POTCAR:    PAW_PBE Ni_pv 06Sep2000               
 POTCAR:    PAW_PBE Ru_pv 28Jan2005               
 POTCAR:    PAW_PBE Al 04Jan2001                  
   VRHFIN =Al: s2p1                                                                                 
   LEXCH  = PE                                                                                      
   EATOM  =    53.5387 eV,    3.9350 Ry                                                             
                                                                                                    
   TITEL  = PAW_PBE Al 04Jan2001                                                                    
   LULTRA =        F    use ultrasoft PP ?                                                          
   IUNSCR =        1    unscreen: 0-lin 1-nonlin 2-no                                               
   RPACOR =    1.500    partial core radius                                                         
   POMASS =   26.981; ZVAL   =    3.000    mass and valenz                                          
   RCORE  =    1.900    outmost cutoff radius                                                       
   RWIGS  =    2.650; RWIGS  =    1.402    wigner-seitz radius (au A)                               
   ENMAX  =  240.300; ENMIN  =  180.225 eV                                                          
   ICORE  =        2    local potential                                                             
   LCOR   =        T    correct aug charges                                                         
   LPAW   =        T    paw PP                                                                      
   EAUG   =  291.052                                                                                
   DEXC   =    0.000                                                                                
   RMAX   =    1.939    core radius for proj-oper                                                   
   RAUG   =    1.300    factor for augmentation sphere                                              
   RDEP   =    1.966    radius for radial grids                                                     
   RDEPT  =    1.856    core radius for aug-charge                                                  
                                                                                                    
   Atomic configuration                                                                             
    6 entries                                                                                       
     n  l   j            E        occ.                                                              
     1  0  0.50     -1511.1048   2.0000                                                             
     2  0  0.50      -108.1629   2.0000                                                             
     2  1  1.50       -69.6402   6.0000                                                             
     3  0  0.50        -7.7528   2.0000                                                             
     3  1  1.50        -2.7121   1.0000                                                             
     3  2  2.50        -2.7212   0.0000                                                             
   Description                                                                                      
     l       E           TYP  RCUT    TYP  RCUT                                                     
     0     -7.7528455     23  1.900                                                                 
     0     -3.3096929     23  1.900                                                                 
     1     -2.7120682     23  1.900                                                                 
     1     13.6058260     23  1.900                                                                 
     2     -2.7211652      7  1.900                                                                 
  local pseudopotential read in
  partial core-charges read in
  partial kinetic energy density read in
  atomic valenz-charges read in
  non local Contribution for L=           0  read in
    real space projection operators read in
  non local Contribution for L=           0  read in
    real space projection operators read in
  non local Contribution for L=           1  read in
    real space projection operators read in
  non local Contribution for L=           1  read in
    real space projection operators read in
    PAW grid and wavefunctions read in
 
   number of l-projection  operators is LMAX  =           4
   number of lm-projection operators is LMMAX =           8
 
 POTCAR:    PAW_PBE Co 02Aug2007                  
   VRHFIN =Co: d8 s1                                                                                
   LEXCH  = PE                                                                                      
   EATOM  =   813.3670 eV,   59.7808 Ry                                                             
                                                                                                    
   TITEL  = PAW_PBE Co 02Aug2007                                                                    
   LULTRA =        F    use ultrasoft PP ?                                                          
   IUNSCR =        1    unscreen: 0-lin 1-nonlin 2-no                                               
   RPACOR =    2.000    partial core radius                                                         
   POMASS =   58.933; ZVAL   =    9.000    mass and valenz                                          
   RCORE  =    2.300    outmost cutoff radius                                                       
   RWIGS  =    2.460; RWIGS  =    1.302    wigner-seitz radius (au A)                               
   ENMAX  =  267.968; ENMIN  =  200.976 eV                                                          
   RCLOC  =    1.203    cutoff for local pot                                                        
   LCOR   =        T    correct aug charges                                                         
   LPAW   =        T    paw PP                                                                      
   EAUG   =  477.818                                                                                
   DEXC   =    0.000                                                                                
   RMAX   =    2.360    core radius for proj-oper                                                   
   RAUG   =    1.300    factor for augmentation sphere                                              
   RDEP   =    2.393    radius for radial grids                                                     
   RDEPT  =    1.864    core radius for aug-charge                                                  
                                                                                                    
   Atomic configuration                                                                             
    9 entries                                                                                       
     n  l   j            E        occ.                                                              
     1  0  0.50     -7587.6674   2.0000                                                             
     2  0  0.50      -893.6084   2.0000                                                             
     2  1  1.50      -764.5805   6.0000                                                             
     3  0  0.50       -97.5973   2.0000                                                             
     3  1  1.50       -60.9648   6.0000                                                             
     3  2  2.50        -4.2382   8.0000                                                             
     4  0  0.50        -4.3746   1.0000                                                             
     4  1  1.50        -4.0817   0.0000                                                             
     4  3  2.50        -1.3606   0.0000                                                             
   Description                                                                                      
     l       E           TYP  RCUT    TYP  RCUT                                                     
     2     -4.2382362     23  2.300                                                                 
     2     -5.5988188     23  2.300                                                                 
     0     -4.3745797     23  2.300                                                                 
     0      5.7660125     23  2.300                                                                 
     1     -2.7211652     23  2.300                                                                 
     1     16.9860234     23  2.300                                                                 
  local pseudopotential read in
  partial core-charges read in
  partial kinetic energy density read in
  atomic valenz-charges read in
  non local Contribution for L=           2  read in
    real space projection operators read in
  non local Contribution for L=           2  read in
    real space projection operators read in
  non local Contribution for L=           0  read in
    real space projection operators read in
  non local Contribution for L=           0  read in
    real space projection operators read in
  non local Contribution for L=           1  read in
    real space projection operators read in
  non local Contribution for L=           1  read in
    real space projection operators read in
    PAW grid and wavefunctions read in
 
   number of l-projection  operators is LMAX  =           6
   number of lm-projection operators is LMMAX =          18
 
 POTCAR:    PAW_PBE Ni_pv 06Sep2000               
   VRHFIN =Ni:                                                                                      
   LEXCH  = PE                                                                                      
   EATOM  =  3501.1230 eV,  257.3253 Ry                                                             
                                                                                                    
   TITEL  = PAW_PBE Ni_pv 06Sep2000                                                                 
   LULTRA =        F    use ultrasoft PP ?                                                          
   IUNSCR =        1    unscreen: 0-lin 1-nonlin 2-no                                               
   RPACOR =    1.500    partial core radius                                                         
   POMASS =   58.690; ZVAL   =   16.000    mass and valenz                                          
   RCORE  =    2.000    outmost cutoff radius                                                       
   RWIGS  =    2.000; RWIGS  =    1.058    wigner-seitz radius (au A)                               
   ENMAX  =  367.986; ENMIN  =  275.989 eV                                                          
   RCLOC  =    1.301    cutoff for local pot                                                        
   LCOR   =        T    correct aug charges                                                         
   LPAW   =        T    paw PP                                                                      
   EAUG   =  703.443                                                                                
   DEXC   =    0.000                                                                                
   RMAX   =    2.041    core radius for proj-oper                                                   
   RAUG   =    1.300    factor for augmentation sphere                                              
   RDEP   =    2.103    radius for radial grids                                                     
   RDEPT  =    1.618    core radius for aug-charge                                                  
                                                                                                    
   Atomic configuration                                                                             
    8 entries                                                                                       
     n  l   j            E        occ.                                                              
     1  0  0.50     -8206.4253   2.0000                                                             
     2  0  0.50      -976.1748   2.0000                                                             
     2  1  1.50      -839.0571   6.0000                                                             
     3  0  0.50      -105.9991   2.0000                                                             
     3  1  1.50       -66.4603   6.0000                                                             
     3  2  2.50        -4.6458   9.0000                                                             
     4  0  0.50        -4.4926   1.0000                                                             
     4  3  2.50        -1.3606   0.0000                                                             
   Description                                                                                      
     l       E           TYP  RCUT    TYP  RCUT                                                     
     1    -66.4602962     23  1.700                                                                 
     1     -1.3605826     23  1.700                                                                 
     2     -4.6457867     23  2.000                                                                 
     2     -6.0063693     23  2.000                                                                 
     0     -4.4925576     23  1.900                                                                 
     0     16.3626226     23  1.900                                                                 
  local pseudopotential read in
  partial core-charges read in
  partial kinetic energy density read in
  atomic valenz-charges read in
  non local Contribution for L=           1  read in
    real space projection operators read in
  non local Contribution for L=           1  read in
    real space projection operators read in
  non local Contribution for L=           2  read in
    real space projection operators read in
  non local Contribution for L=           2  read in
    real space projection operators read in
  non local Contribution for L=           0  read in
    real space projection operators read in
  non local Contribution for L=           0  read in
    real space projection operators read in
    PAW grid and wavefunctions read in
 
   number of l-projection  operators is LMAX  =           6
   number of lm-projection operators is LMMAX =          18
 
 POTCAR:    PAW_PBE Ru_pv 28Jan2005               
   VRHFIN =Ru: 4p5s4d                                                                               
   LEXCH  = PE                                                                                      
   EATOM  =  1873.4746 eV,  137.6965 Ry                                                             
                                                                                                    
   TITEL  = PAW_PBE Ru_pv 28Jan2005                                                                 
   LULTRA =        F    use ultrasoft PP ?                                                          
   IUNSCR =        1    unscreen: 0-lin 1-nonlin 2-no                                               
   RPACOR =    2.170    partial core radius                                                         
   POMASS =  101.070; ZVAL   =   14.000    mass and valenz                                          
   RCORE  =    2.500    outmost cutoff radius                                                       
   RWIGS  =    2.650; RWIGS  =    1.402    wigner-seitz radius (au A)                               
   ENMAX  =  240.049; ENMIN  =  180.037 eV                                                          
   ICORE  =        3    local potential                                                             
   LCOR   =        T    correct aug charges                                                         
   LPAW   =        T    paw PP                                                                      
   EAUG   =  430.792                                                                                
   DEXC   =    0.000                                                                                
   RMAX   =    2.546    core radius for proj-oper                                                   
   RAUG   =    1.300    factor for augmentation sphere                                              
   RDEP   =    2.520    radius for radial grids                                                     
   RDEPT  =    2.044    core radius for aug-charge                                                  
                                                                                                    
   Atomic configuration                                                                             
   11 entries                                                                                       
     n  l   j            E        occ.                                                              
     1  0  0.50    -21933.2692   2.0000                                                             
     2  0  0.50     -3153.4096   2.0000                                                             
     2  1  1.50     -2823.9548   6.0000                                                             
     3  0  0.50      -555.3322   2.0000                                                             
     3  1  1.50      -447.1024   6.0000                                                             
     3  2  2.50      -273.0570  10.0000                                                             
     4  0  0.50       -76.3589   2.0000                                                             
     4  1  1.50       -46.4050   6.0000                                                             
     4  2  2.50        -5.2029   7.0000                                                             
     5  0  0.50        -4.2392   1.0000                                                             
     4  3  2.50        -1.3606   0.0000                                                             
   Description                                                                                      
     l       E           TYP  RCUT    TYP  RCUT                                                     
     1    -46.4050190     23  2.100                                                                 
     1      4.0817478     23  2.100                                                                 
     2     -5.2028758     23  2.500                                                                 
     2     -6.5634584     23  2.500                                                                 
     0     -4.2392192     23  2.500                                                                 
     0      7.0918828     23  2.500                                                                 
     3     -5.4423304     23  2.500                                                                 
  local pseudopotential read in
  partial core-charges read in
  partial kinetic energy density read in
  atomic valenz-charges read in
  non local Contribution for L=           1  read in
    real space projection operators read in
  non local Contribution for L=           1  read in
    real space projection operators read in
  non local Contribution for L=           2  read in
    real space projection operators read in
  non local Contribution for L=           2  read in
    real space projection operators read in
  non local Contribution for L=           0  read in
    real space projection operators read in
  non local Contribution for L=           0  read in
    real space projection operators read in
    PAW grid and wavefunctions read in
 
   number of l-projection  operators is LMAX  =           6
   number of lm-projection operators is LMMAX =          18
 
 Optimization of the real space projectors (new method)

 maximal supplied QI-value         = 19.84
 optimisation between [QCUT,QGAM] = [ 11.51, 23.22] = [ 37.09,150.92] Ry 
 Optimized for a Real-space Cutoff    1.18 Angstroem

   l    n(q)    QCUT    max X(q) W(low)/X(q) W(high)/X(q)  e(spline) 
   0      8    11.508   176.870    0.11E-03    0.16E-03    0.40E-07
   0      8    11.508   105.762    0.11E-03    0.16E-03    0.39E-07
   1      8    11.508    55.370    0.23E-03    0.10E-03    0.75E-07
   1      8    11.508    20.208    0.21E-03    0.91E-04    0.68E-07
 Optimization of the real space projectors (new method)

 maximal supplied QI-value         = 16.25
 optimisation between [QCUT,QGAM] = [ 11.54, 23.24] = [ 37.28,151.24] Ry 
 Optimized for a Real-space Cutoff    1.45 Angstroem

   l    n(q)    QCUT    max X(q) W(low)/X(q) W(high)/X(q)  e(spline) 
   2      9    11.539    65.824    0.19E-03    0.47E-04    0.16E-06
   2      9    11.539    61.429    0.20E-03    0.48E-04    0.16E-06
   0     10    11.539    56.174    0.76E-04    0.45E-04    0.23E-06
   0     10    11.539    31.263    0.69E-04    0.41E-04    0.21E-06
   1     10    11.539    19.828    0.78E-04    0.14E-03    0.70E-07
   1     10    11.539    15.139    0.65E-04    0.12E-03    0.64E-07
 Optimization of the real space projectors (new method)

 maximal supplied QI-value         = 18.90
 optimisation between [QCUT,QGAM] = [ 11.53, 23.24] = [ 37.21,151.29] Ry 
 Optimized for a Real-space Cutoff    1.36 Angstroem

   l    n(q)    QCUT    max X(q) W(low)/X(q) W(high)/X(q)  e(spline) 
   1      9    11.527     2.836    0.16E-04    0.30E-04    0.95E-07
   1      9    11.527     4.023    0.73E-04    0.81E-04    0.21E-06
   2      9    11.527    73.368    0.15E-03    0.29E-03    0.28E-06
   2      9    11.527    69.010    0.15E-03    0.29E-03    0.29E-06
   0      9    11.527    54.797    0.43E-04    0.28E-04    0.85E-07
   0      9    11.527    24.266    0.33E-04    0.24E-04    0.75E-07
 Optimization of the real space projectors (new method)

 maximal supplied QI-value         = 15.12
 optimisation between [QCUT,QGAM] = [ 11.64, 23.28] = [ 37.95,151.78] Ry 
 Optimized for a Real-space Cutoff    1.49 Angstroem

   l    n(q)    QCUT    max X(q) W(low)/X(q) W(high)/X(q)  e(spline) 
   1     10    11.641     3.180    0.30E-04    0.36E-05    0.54E-07
   1     10    11.641     5.351    0.12E-03    0.51E-04    0.30E-06
   2      9    11.641    66.565    0.22E-03    0.78E-04    0.20E-06
   2      9    11.641    63.466    0.22E-03    0.79E-04    0.20E-06
   0     10    11.641    85.644    0.61E-04    0.23E-04    0.12E-06
   0     10    11.641    44.119    0.56E-04    0.21E-04    0.11E-06
  PAW_PBE Al 04Jan2001                  :
 energy of atom  1       EATOM=  -53.5387
 kinetic energy error for atom=    0.0002 (will be added to EATOM!!)
  PAW_PBE Co 02Aug2007                  :
 energy of atom  2       EATOM= -813.3670
 kinetic energy error for atom=    0.0028 (will be added to EATOM!!)
  PAW_PBE Ni_pv 06Sep2000               :
 energy of atom  3       EATOM=-3501.1230
 kinetic energy error for atom=    0.0575 (will be added to EATOM!!)
  PAW_PBE Ru_pv 28Jan2005               :
 energy of atom  4       EATOM=-1873.4746
 kinetic energy error for atom=    0.0068 (will be added to EATOM!!)
 
 
 POSCAR: Al8 Co1 Ni3 Ru4
  positions in direct lattice
  No initial velocities read in
 exchange correlation table for  LEXCH =        8
   RHO(1)=    0.500       N(1)  =     2000
   RHO(2)=  100.500       N(2)  =     4000
 


--------------------------------------------------------------------------------------------------------


 ion  position               nearest neighbor table
   1  0.003  0.503  0.252-   9 2.53  11 2.54  15 2.55  16 2.55  14 2.57  13 2.57  12 2.57  10 2.59
                             2 2.88   3 2.88   2 2.95   3 2.95   7 3.00   7 3.05
   2  0.003  0.997  0.252-   9 2.53  11 2.54  15 2.55  16 2.55  14 2.57  13 2.57  12 2.57  10 2.59
                             1 2.88   4 2.88   1 2.95   4 2.95   8 3.00   8 3.05
   3  0.497  0.503  0.254-   9 2.52  16 2.54  15 2.54  11 2.55  12 2.57  13 2.57  14 2.57  10 2.59
                             4 2.88   1 2.88   4 2.95   1 2.95   5 2.98   5 3.07
   4  0.497  0.997  0.254-   9 2.52  16 2.54  15 2.54  11 2.55  12 2.57  13 2.57  14 2.57  10 2.59
                             3 2.88   2 2.88   3 2.95   2 2.95   6 2.98   6 3.07
   5  0.497  0.503  0.746-   9 2.52  16 2.54  15 2.54  11 2.55  12 2.57  13 2.57  14 2.57  10 2.59
                             6 2.88   7 2.88   6 2.95   7 2.95   3 2.98   3 3.07
   6  0.497  0.997  0.746-   9 2.52  16 2.54  15 2.54  11 2.55  12 2.57  13 2.57  14 2.57  10 2.59
                             5 2.88   8 2.88   5 2.95   8 2.95   4 2.98   4 3.07
   7  0.003  0.503  0.748-   9 2.53  11 2.54  15 2.55  16 2.55  14 2.57  13 2.57  12 2.57  10 2.59
                             8 2.88   5 2.88   8 2.95   5 2.95   1 3.00   1 3.05
   8  0.003  0.997  0.748-   9 2.53  11 2.54  15 2.55  16 2.55  14 2.57  13 2.57  12 2.57  10 2.59
                             7 2.88   6 2.88   7 2.95   6 2.95   2 3.00   2 3.05
   9  0.250  0.750  0.500-   6 2.52   3 2.52   4 2.52   5 2.52   1 2.53   7 2.53   2 2.53   8 2.53
                            16 2.91  15 2.91  15 2.91  16 2.92
  10  0.750  0.250  0.000-   1 2.59   8 2.59   2 2.59   7 2.59   5 2.59   6 2.59   3 2.59   4 2.59
                            13 2.91  14 2.91  14 2.91  13 2.92
  11  0.250  0.750  0.000-   7 2.54   2 2.54   8 2.54   1 2.54   4 2.55   3 2.55   6 2.55   5 2.55
                            14 2.91  13 2.91  13 2.91  14 2.92
  12  0.750  0.250  0.500-   4 2.57   5 2.57   3 2.57   6 2.57   7 2.57   1 2.57   8 2.57   2 2.57
                            15 2.91  16 2.91  16 2.91  15 2.92
  13  0.251  0.250  0.000-   8 2.57   2 2.57   7 2.57   1 2.57   3 2.57   4 2.57   5 2.57   6 2.57
                            10 2.91  11 2.91  11 2.91  10 2.92  15 3.02  15 3.02
  14  0.749  0.750  0.000-   2 2.57   8 2.57   1 2.57   7 2.57   5 2.57   3 2.57   6 2.57   4 2.57
                            11 2.91  10 2.91  10 2.91  11 2.92  16 3.02  16 3.02
  15  0.249  0.250  0.500-   5 2.54   4 2.54   6 2.54   3 2.54   7 2.55   2 2.55   1 2.55   8 2.55
                            12 2.91   9 2.91   9 2.91  12 2.92  13 3.02  13 3.02
  16  0.751  0.750  0.500-   6 2.54   3 2.54   4 2.54   5 2.54   8 2.55   2 2.55   7 2.55   1 2.55
                             9 2.91  12 2.91  12 2.91   9 2.92  14 3.02  14 3.02
 
  LATTYP: Found a simple monoclinic cell.
 ALAT       =     8.3984966787
 B/A-ratio  =     0.6939769369
 C/A-ratio  =     1.5633718450
 COS(beta)  =    -0.9475568182
  
  Lattice vectors:
  
 A1 = (   0.0001879843,  -5.8269119926,   6.0482925737)
 A2 = (   5.8283629940,   0.0000000000,  -0.0002649120)
 A3 = (  -0.0003759685,  11.6538239851,  -6.0485191475)


Analysis of symmetry for initial positions (statically):
=====================================================================
 Subroutine PRICEL returns:
 Original cell was already a primitive cell.
 

 Routine SETGRP: Setting up the symmetry group for a 
 simple monoclinic supercell.


 Subroutine GETGRP returns: Found  1 space group operations
 (whereof  1 operations were pure point group operations)
 out of a pool of  4 trial point group operations.


The static configuration has the point symmetry C_1 .


Analysis of symmetry for dynamics (positions and initial velocities):
=====================================================================
 Subroutine PRICEL returns:
 Original cell was already a primitive cell.
 

 Routine SETGRP: Setting up the symmetry group for a 
 simple monoclinic supercell.


 Subroutine GETGRP returns: Found  1 space group operations
 (whereof  1 operations were pure point group operations)
 out of a pool of  4 trial point group operations.


The dynamic configuration has the point symmetry C_1 .


Analysis of structural, dynamic, and magnetic symmetry:
=====================================================================
 Subroutine PRICEL returns:
 Original cell was already a primitive cell.
 

 Routine SETGRP: Setting up the symmetry group for a 
 simple monoclinic supercell.


 Subroutine GETGRP returns: Found  1 space group operations
 (whereof  1 operations were pure point group operations)
 out of a pool of  4 trial point group operations.


The overall configuration has the point symmetry C_1 .


 Subroutine INISYM returns: Found  1 space group operations
 (whereof  1 operations are pure point group operations),
 and found     1 'primitive' translations


----------------------------------------------------------------------------------------

                                     Primitive cell                                     

  volume of cell :     205.4005

  direct lattice vectors                    reciprocal lattice vectors
     5.828362994  0.000000000 -0.000264912     0.171574763  0.000005535  0.000000000
    -0.000187984  5.826911993 -0.000226574     0.000000000  0.171617488  0.000000000
     0.000000000  0.000000000  6.048066000     0.000007515  0.000006429  0.165342111

  length of vectors
     5.828363000  5.826912000  6.048066000     0.171574763  0.171617488  0.165342111

  position of ions in fractional coordinates (direct lattice)
     0.003242000  0.503241000  0.252127000
     0.003243000  0.996751000  0.252113000
     0.496724000  0.503228000  0.253846000
     0.496726000  0.996774000  0.253858000
     0.496749000  0.503214000  0.746158000
     0.496731000  0.996772000  0.746144000
     0.003257000  0.503247000  0.747867000
     0.003238000  0.996767000  0.747890000
     0.249655000  0.749996000  0.500007000
     0.749560000  0.249997000  0.000002000
     0.250449000  0.749999000  1.000000000
     0.750478000  0.250000000  0.499992000
     0.250779000  0.250001000  0.000002000
     0.749327000  0.749997000  1.000000000
     0.249230000  0.250005000  0.500000000
     0.750610000  0.750010000  0.500002000

  ion indices of the primitive-cell ions
   primitive index   ion index
                 1           1
                 2           2
                 3           3
                 4           4
                 5           5
                 6           6
                 7           7
                 8           8
                 9           9
                10          10
                11          11
                12          12
                13          13
                14          14
                15          15
                16          16

----------------------------------------------------------------------------------------

 
 
 KPOINTS: pymatgen with grid density = 1237 / numb

Automatic generation of k-mesh.
 Grid dimensions read from file:
 generate k-points for:    4    4    4

 Generating k-lattice:

  Cartesian coordinates                     Fractional coordinates (reciprocal lattice)
     0.042893691  0.000001384  0.000000000     0.250000000  0.000000000  0.000000000
     0.000000000  0.042904372  0.000000000     0.000000000  0.250000000  0.000000000
     0.000001879  0.000001607  0.041335528     0.000000000 -0.000000000  0.250000000

  Length of vectors
     0.042893691  0.042904372  0.041335528

  Shift w.r.t. Gamma in fractional coordinates (k-lattice)
     0.500000000  0.500000000  0.500000000

 TETIRR: Found    192 inequivalent tetrahedra from      384
 
 Subroutine IBZKPT returns following result:
 ===========================================
 
 Found     32 irreducible k-points:
 
 Following reciprocal coordinates:
            Coordinates               Weight
  0.125000  0.125000  0.125000      2.000000
  0.125000 -0.125000 -0.125000      2.000000
  0.375000  0.125000  0.125000      2.000000
  0.375000 -0.125000 -0.125000      2.000000
  0.125000  0.375000  0.125000      2.000000
  0.125000 -0.375000 -0.125000      2.000000
  0.375000  0.375000  0.125000      2.000000
  0.375000 -0.375000 -0.125000      2.000000
  0.125000 -0.375000  0.125000      2.000000
  0.125000  0.375000 -0.125000      2.000000
  0.375000 -0.375000  0.125000      2.000000
  0.375000  0.375000 -0.125000      2.000000
  0.125000 -0.125000  0.125000      2.000000
  0.125000  0.125000 -0.125000      2.000000
  0.375000 -0.125000  0.125000      2.000000
  0.375000  0.125000 -0.125000      2.000000
  0.125000  0.125000  0.375000      2.000000
  0.125000 -0.125000 -0.375000      2.000000
  0.375000  0.125000  0.375000      2.000000
  0.375000 -0.125000 -0.375000      2.000000
  0.125000  0.375000  0.375000      2.000000
  0.125000 -0.375000 -0.375000      2.000000
  0.375000  0.375000  0.375000      2.000000
  0.375000 -0.375000 -0.375000      2.000000
  0.125000 -0.375000  0.375000      2.000000
  0.125000  0.375000 -0.375000      2.000000
  0.375000 -0.375000  0.375000      2.000000
  0.375000  0.375000 -0.375000      2.000000
  0.125000 -0.125000  0.375000      2.000000
  0.125000  0.125000 -0.375000      2.000000
  0.375000 -0.125000  0.375000      2.000000
  0.375000  0.125000 -0.375000      2.000000
 
 Following cartesian coordinates:
            Coordinates               Weight
  0.021448  0.021454  0.020668      2.000000
  0.021446 -0.021452 -0.020668      2.000000
  0.064341  0.021455  0.020668      2.000000
  0.064340 -0.021451 -0.020668      2.000000
  0.021448  0.064358  0.020668      2.000000
  0.021446 -0.064357 -0.020668      2.000000
  0.064341  0.064359  0.020668      2.000000
  0.064340 -0.064355 -0.020668      2.000000
  0.021448 -0.064355  0.020668      2.000000
  0.021446  0.064356 -0.020668      2.000000
  0.064341 -0.064354  0.020668      2.000000
  0.064340  0.064358 -0.020668      2.000000
  0.021448 -0.021451  0.020668      2.000000
  0.021446  0.021452 -0.020668      2.000000
  0.064341 -0.021449  0.020668      2.000000
  0.064340  0.021453 -0.020668      2.000000
  0.021450  0.021455  0.062003      2.000000
  0.021444 -0.021454 -0.062003      2.000000
  0.064343  0.021457  0.062003      2.000000
  0.064338 -0.021453 -0.062003      2.000000
  0.021450  0.064360  0.062003      2.000000
  0.021444 -0.064358 -0.062003      2.000000
  0.064343  0.064361  0.062003      2.000000
  0.064338 -0.064357 -0.062003      2.000000
  0.021450 -0.064353  0.062003      2.000000
  0.021444  0.064355 -0.062003      2.000000
  0.064343 -0.064352  0.062003      2.000000
  0.064338  0.064356 -0.062003      2.000000
  0.021450 -0.021449  0.062003      2.000000
  0.021444  0.021450 -0.062003      2.000000
  0.064343 -0.021448  0.062003      2.000000
  0.064338  0.021452 -0.062003      2.000000
 


--------------------------------------------------------------------------------------------------------




 Dimension of arrays:
   k-points           NKPTS =     32   k-points in BZ     NKDIM =     32   number of bands    NBANDS=     96
   number of dos      NEDOS =    301   number of ions     NIONS =     16
   non local maximal  LDIM  =      6   non local SUM 2l+1 LMDIM =     18
   total plane-waves  NPLWV = 110592
   max r-space proj   IRMAX =   7497   max aug-charges    IRDMAX=  25002
   dimension x,y,z NGX =    48 NGY =   48 NGZ =   48
   dimension x,y,z NGXF=    96 NGYF=   96 NGZF=   96
   support grid    NGXF=    96 NGYF=   96 NGZF=   96
   ions per type =               8   1   3   4
   NGX,Y,Z   is equivalent  to a cutoff of  13.69, 13.69, 13.19 a.u.
   NGXF,Y,Z  is equivalent  to a cutoff of  27.38, 27.39, 26.39 a.u.

 SYSTEM =  unknown system                          
 POSCAR =  Al8 Co1 Ni3 Ru4                         

 Startparameter for this run:
   NWRITE =      2    write-flag & timer
   PREC   = accura    normal or accurate (medium, high low for compatibility)
   ISTART =      0    job   : 0-new  1-cont  2-samecut
   ICHARG =      2    charge: 1-file 2-atom 10-const
   ISPIN  =      2    spin polarized calculation?
   LNONCOLLINEAR =      F non collinear calculations
   LSORBIT =      F    spin-orbit coupling
   INIWAV =      1    electr: 0-lowe 1-rand  2-diag
   LASPH  =      T    aspherical Exc in radial PAW
 Electronic Relaxation 1
   ENCUT  =  520.0 eV  38.22 Ry    6.18 a.u.  10.84 10.83 11.25*2*pi/ulx,y,z
   ENINI  =  520.0     initial cutoff
   ENAUG  =  703.4 eV  augmentation charge cutoff
   NELM   =    100;   NELMIN=  2; NELMDL= -5     # of ELM steps 
   EDIFF  = 0.8E-03   stopping-criterion for ELM
   LREAL  =      T    real-space projection
   NLSPLINE    = F    spline interpolate recip. space projectors
   LCOMPAT=      F    compatible to vasp.4.4
   GGA_COMPAT  = T    GGA compatible to vasp.4.4-vasp.4.6
   LMAXPAW     = -100 max onsite density
   LMAXMIX     =    4 max onsite mixed and CHGCAR
   VOSKOWN=      0    Vosko Wilk Nusair interpolation
   ROPT   =   -0.00025  -0.00025  -0.00025  -0.00025
 Ionic relaxation
   EDIFFG = 0.8E-02   stopping-criterion for IOM
   NSW    =     99    number of steps for IOM
   NBLOCK =      1;   KBLOCK =     99    inner block; outer block 
   IBRION =      2    ionic relax: 0-MD 1-quasi-New 2-CG
   NFREE  =      1    steps in history (QN), initial steepest desc. (CG)
   ISIF   =      3    stress and relaxation
   IWAVPR =     11    prediction:  0-non 1-charg 2-wave 3-comb
   ISYM   =      2    0-nonsym 1-usesym 2-fastsym
   LCORR  =      T    Harris-Foulkes like correction to forces

   POTIM  = 0.5000    time-step for ionic-motion
   TEIN   =    0.0    initial temperature
   TEBEG  =    0.0;   TEEND  =   0.0 temperature during run
   SMASS  =  -3.00    Nose mass-parameter (am)
   estimated Nose-frequenzy (Omega)   =  0.10E-29 period in steps = 0.13E+47 mass=  -0.776E-27a.u.
   SCALEE = 1.0000    scale energy and forces
   NPACO  =    256;   APACO  = 10.0  distance and # of slots for P.C.
   PSTRESS=    0.0 pullay stress

  Mass of Ions in am
   POMASS =  26.98 58.93 58.69101.07
  Ionic Valenz
   ZVAL   =   3.00  9.00 16.00 14.00
  Atomic Wigner-Seitz radii
   RWIGS  =  -1.00 -1.00 -1.00 -1.00
  virtual crystal weights 
   VCA    =   1.00  1.00  1.00  1.00
   NELECT =     137.0000    total number of electrons
   NUPDOWN=      -1.0000    fix difference up-down

 DOS related values:
   EMIN   =  10.00;   EMAX   =-10.00  energy-range for DOS
   EFERMI =   0.00
   ISMEAR =    -5;   SIGMA  =   0.05  broadening in eV -4-tet -1-fermi 0-gaus

 Electronic relaxation 2 (details)
   IALGO  =     68    algorithm
   LDIAG  =      T    sub-space diagonalisation (order eigenvalues)
   LSUBROT=      F    optimize rotation matrix (better conditioning)
   TURBO    =      0    0=normal 1=particle mesh
   IRESTART =      0    0=no restart 2=restart with 2 vectors
   NREBOOT  =      0    no. of reboots
   NMIN     =      0    reboot dimension
   EREF     =   0.00    reference energy to select bands
   IMIX   =      4    mixing-type and parameters
     AMIX     =   0.40;   BMIX     =  1.00
     AMIX_MAG =   1.60;   BMIX_MAG =  1.00
     AMIN     =   0.10
     WC   =   100.;   INIMIX=   1;  MIXPRE=   1;  MAXMIX= -45

 Intra band minimization:
   WEIMIN = 0.0010     energy-eigenvalue tresh-hold
   EBREAK =  0.21E-05  absolut break condition
   DEPER  =   0.30     relativ break condition  

   TIME   =   0.40     timestep for ELM

  volume/ion in A,a.u.               =      12.84        86.63
  Fermi-wavevector in a.u.,A,eV,Ry     =   1.430368  2.703004 27.836881  2.045953
  Thomas-Fermi vector in A             =   2.550221
 
 Write flags
   LWAVE        =      F    write WAVECAR
   LDOWNSAMPLE  =      F    k-point downsampling of WAVECAR
   LCHARG       =      T    write CHGCAR
   LVTOT        =      F    write LOCPOT, total local potential
   LVHAR        =      F    write LOCPOT, Hartree potential only
   LELF         =      F    write electronic localiz. function (ELF)
   LORBIT       =     11    0 simple, 1 ext, 2 COOP (PROOUT), +10 PAW based schemes


 Dipole corrections
   LMONO  =      F    monopole corrections only (constant potential shift)
   LDIPOL =      F    correct potential (dipole corrections)
   IDIPOL =      0    1-x, 2-y, 3-z, 4-all directions 
   EPSILON=  1.0000000 bulk dielectric constant

 Exchange correlation treatment:
   GGA     =    --    GGA type
   LEXCH   =     8    internal setting for exchange type
   LIBXC   =     F    Libxc                    
   VOSKOWN =     0    Vosko Wilk Nusair interpolation
   LHFCALC =     F    Hartree Fock is set to
   LHFONE  =     F    Hartree Fock one center treatment
   AEXX    =    0.0000 exact exchange contribution

 Linear response parameters
   LEPSILON=     F    determine dielectric tensor
   LRPA    =     F    only Hartree local field effects (RPA)
   LNABLA  =     F    use nabla operator in PAW spheres
   LVEL    =     F    velocity operator in full k-point grid
   CSHIFT  =0.1000    complex shift for real part using Kramers Kronig
   OMEGAMAX=  -1.0    maximum frequency
   DEG_THRESHOLD= 0.2000000E-02 threshold for treating states as degnerate
   RTIME   =   -0.100 relaxation time in fs
  (WPLASMAI=    0.000 imaginary part of plasma frequency in eV, 0.658/RTIME)
   DFIELD  = 0.0000000 0.0000000 0.0000000 field for delta impulse in time
 
  Optional k-point grid parameters
   LKPOINTS_OPT  =     F    use optional k-point grid
   KPOINTS_OPT_MODE=     1    mode for optional k-point grid
 
 Orbital magnetization related:
   ORBITALMAG=     F  switch on orbital magnetization
   LCHIMAG   =     F  perturbation theory with respect to B field
   DQ        =  0.001000  dq finite difference perturbation B field
   LLRAUG    =     F  two centre corrections for induced B field



--------------------------------------------------------------------------------------------------------


 conjugate gradient relaxation of ions
 charge density and potential will be updated during run
 spin polarized calculation
 RMM-DIIS sequential band-by-band and
  variant of blocked Davidson during initial phase
 perform sub-space diagonalisation
    before iterative eigenvector-optimisation
 modified Broyden-mixing scheme, WC =      100.0
 initial mixing is a Kerker type mixing with AMIX =  0.4000 and BMIX =      1.0000
 Hartree-type preconditioning will be used
 using additional bands           27
 real space projection scheme for non local part
 use partial core corrections
 calculate Harris-corrections to forces 
   (improved forces if not selfconsistent)
 use gradient corrections 
 use of overlap-Matrix (Vanderbilt PP)
 Fermi weights with tetrahedron method with Bloechl corrections


--------------------------------------------------------------------------------------------------------


  energy-cutoff  :      520.00
  volume of cell :      205.40
      direct lattice vectors                 reciprocal lattice vectors
     5.828362994  0.000000000 -0.000264912     0.171574763  0.000005535  0.000000000
    -0.000187984  5.826911993 -0.000226574     0.000000000  0.171617488  0.000000000
     0.000000000  0.000000000  6.048066000     0.000007515  0.000006429  0.165342111

  length of vectors
     5.828363000  5.826912000  6.048066000     0.171574763  0.171617488  0.165342111


 
 k-points in units of 2pi/SCALE and weight: pymatgen with grid density = 1237 / numb
   0.02144778  0.02145368  0.02066776       0.031
   0.02144591 -0.02145230 -0.02066776       0.031
   0.06434148  0.02145507  0.02066776       0.031
   0.06433960 -0.02145091 -0.02066776       0.031
   0.02144778  0.06435805  0.02066776       0.031
   0.02144591 -0.06435667 -0.02066776       0.031
   0.06434148  0.06435944  0.02066776       0.031
   0.06433960 -0.06435529 -0.02066776       0.031
   0.02144778 -0.06435506  0.02066776       0.031
   0.02144591  0.06435645 -0.02066776       0.031
   0.06434148 -0.06435368  0.02066776       0.031
   0.06433960  0.06435783 -0.02066776       0.031
   0.02144778 -0.02145069  0.02066776       0.031
   0.02144591  0.02145207 -0.02066776       0.031
   0.06434148 -0.02144931  0.02066776       0.031
   0.06433960  0.02145346 -0.02066776       0.031
   0.02144966  0.02145529  0.06200329       0.031
   0.02144403 -0.02145391 -0.06200329       0.031
   0.06434335  0.02145667  0.06200329       0.031
   0.06433772 -0.02145252 -0.06200329       0.031
   0.02144966  0.06435966  0.06200329       0.031
   0.02144403 -0.06435828 -0.06200329       0.031
   0.06434335  0.06436104  0.06200329       0.031
   0.06433772 -0.06435689 -0.06200329       0.031
   0.02144966 -0.06435346  0.06200329       0.031
   0.02144403  0.06435484 -0.06200329       0.031
   0.06434335 -0.06435207  0.06200329       0.031
   0.06433772  0.06435622 -0.06200329       0.031
   0.02144966 -0.02144908  0.06200329       0.031
   0.02144403  0.02145047 -0.06200329       0.031
   0.06434335 -0.02144770  0.06200329       0.031
   0.06433772  0.02145185 -0.06200329       0.031
 
 k-points in reciprocal lattice and weights: pymatgen with grid density = 1237 / numb
   0.12500000  0.12500000  0.12500000       0.031
   0.12500000 -0.12500000 -0.12500000       0.031
   0.37500000  0.12500000  0.12500000       0.031
   0.37500000 -0.12500000 -0.12500000       0.031
   0.12500000  0.37500000  0.12500000       0.031
   0.12500000 -0.37500000 -0.12500000       0.031
   0.37500000  0.37500000  0.12500000       0.031
   0.37500000 -0.37500000 -0.12500000       0.031
   0.12500000 -0.37500000  0.12500000       0.031
   0.12500000  0.37500000 -0.12500000       0.031
   0.37500000 -0.37500000  0.12500000       0.031
   0.37500000  0.37500000 -0.12500000       0.031
   0.12500000 -0.12500000  0.12500000       0.031
   0.12500000  0.12500000 -0.12500000       0.031
   0.37500000 -0.12500000  0.12500000       0.031
   0.37500000  0.12500000 -0.12500000       0.031
   0.12500000  0.12500000  0.37500000       0.031
   0.12500000 -0.12500000 -0.37500000       0.031
   0.37500000  0.12500000  0.37500000       0.031
   0.37500000 -0.12500000 -0.37500000       0.031
   0.12500000  0.37500000  0.37500000       0.031
   0.12500000 -0.37500000 -0.37500000       0.031
   0.37500000  0.37500000  0.37500000       0.031
   0.37500000 -0.37500000 -0.37500000       0.031
   0.12500000 -0.37500000  0.37500000       0.031
   0.12500000  0.37500000 -0.37500000       0.031
   0.37500000 -0.37500000  0.37500000       0.031
   0.37500000  0.37500000 -0.37500000       0.031
   0.12500000 -0.12500000  0.37500000       0.031
   0.12500000  0.12500000 -0.37500000       0.031
   0.37500000 -0.12500000  0.37500000       0.031
   0.37500000  0.12500000 -0.37500000       0.031
 
 position of ions in fractional coordinates (direct lattice) 
   0.00324200  0.50324100  0.25212700
   0.00324300  0.99675100  0.25211300
   0.49672400  0.50322800  0.25384600
   0.49672600  0.99677400  0.25385800
   0.49674900  0.50321400  0.74615800
   0.49673100  0.99677200  0.74614400
   0.00325700  0.50324700  0.74786700
   0.00323800  0.99676700  0.74789000
   0.24965500  0.74999600  0.50000700
   0.74956000  0.24999700  0.00000200
   0.25044900  0.74999900  0.00000000
   0.75047800  0.25000000  0.49999200
   0.25077900  0.25000100  0.00000200
   0.74932700  0.74999700  0.00000000
   0.24923000  0.25000500  0.50000000
   0.75061000  0.75001000  0.50000200
 
 position of ions in cartesian coordinates  (Angst):
   0.01880095  2.93234102  1.52476586
   0.01871401  5.80798036  1.52456937
   2.89499318  2.93226527  1.53503176
   2.89491206  5.80811437  1.53499251
   2.89513889  2.93218369  4.51256722
   2.89494120  5.80810272  4.51237073
   0.01888838  2.93237598  4.52303409
   0.01868486  5.80807359  4.52306138
   1.45493898  4.37016069  3.02383927
   4.36866077  1.45671052 -0.00024311
   1.45956670  4.37017817 -0.00023628
   4.37401121  1.45672800  3.02372916
   1.46158405  1.45673383 -0.00011098
   4.36720877  4.37016651 -0.00036844
   1.45255591  1.45675713  3.02391033
   4.37468656  4.37024226  3.02367632
 


--------------------------------------------------------------------------------------------------------


 k-point   1 :   0.1250 0.1250 0.1250  plane waves:    5522
 k-point   2 :   0.1250-0.1250-0.1250  plane waves:    5522
 k-point   3 :   0.3750 0.1250 0.1250  plane waves:    5538
 k-point   4 :   0.3750-0.1250-0.1250  plane waves:    5538
 k-point   5 :   0.1250 0.3750 0.1250  plane waves:    5534
 k-point   6 :   0.1250-0.3750-0.1250  plane waves:    5534
 k-point   7 :   0.3750 0.3750 0.1250  plane waves:    5532
 k-point   8 :   0.3750-0.3750-0.1250  plane waves:    5532
 k-point   9 :   0.1250-0.3750 0.1250  plane waves:    5534
 k-point  10 :   0.1250 0.3750-0.1250  plane waves:    5534
 k-point  11 :   0.3750-0.3750 0.1250  plane waves:    5532
 k-point  12 :   0.3750 0.3750-0.1250  plane waves:    5531
 k-point  13 :   0.1250-0.1250 0.1250  plane waves:    5520
 k-point  14 :   0.1250 0.1250-0.1250  plane waves:    5522
 k-point  15 :   0.3750-0.1250 0.1250  plane waves:    5538
 k-point  16 :   0.3750 0.1250-0.1250  plane waves:    5537
 k-point  17 :   0.1250 0.1250 0.3750  plane waves:    5521
 k-point  18 :   0.1250-0.1250-0.3750  plane waves:    5521
 k-point  19 :   0.3750 0.1250 0.3750  plane waves:    5527
 k-point  20 :   0.3750-0.1250-0.3750  plane waves:    5529
 k-point  21 :   0.1250 0.3750 0.3750  plane waves:    5528
 k-point  22 :   0.1250-0.3750-0.3750  plane waves:    5529
 k-point  23 :   0.3750 0.3750 0.3750  plane waves:    5550
 k-point  24 :   0.3750-0.3750-0.3750  plane waves:    5550
 k-point  25 :   0.1250-0.3750 0.3750  plane waves:    5529
 k-point  26 :   0.1250 0.3750-0.3750  plane waves:    5529
 k-point  27 :   0.3750-0.3750 0.3750  plane waves:    5550
 k-point  28 :   0.3750 0.3750-0.3750  plane waves:    5550
 k-point  29 :   0.1250-0.1250 0.3750  plane waves:    5521
 k-point  30 :   0.1250 0.1250-0.3750  plane waves:    5521
 k-point  31 :   0.3750-0.1250 0.3750  plane waves:    5529
 k-point  32 :   0.3750 0.1250-0.3750  plane waves:    5529

 maximum and minimum number of plane-waves per node :      5550     5520

 maximum number of plane-waves:      5550
 maximum index in each direction: 
   IXMAX=   10   IYMAX=   11   IZMAX=   11
   IXMIN=  -11   IYMIN=  -11   IZMIN=  -11


 serial   3D FFT for wavefunctions
 parallel 3D FFT for charge:
    minimum data exchange during FFTs selected (reduces bandwidth)


 total amount of memory used by VASP MPI-rank0   222861. kBytes
=======================================================================

   base      :      30000. kBytes
   nonlr-proj:      12255. kBytes
   fftplans  :       8029. kBytes
   grid      :      30523. kBytes
   one-center:        497. kBytes
   wavefun   :     141557. kBytes
 
     INWAV:  cpu time      0.0000: real time      0.0000
 Broyden mixing: mesh for mixing (old mesh)
   NGX = 21   NGY = 21   NGZ = 23
  (NGX  = 96   NGY  = 96   NGZ  = 96)
  gives a total of  10143 points

 initial charge density was supplied:
 charge density of overlapping atoms calculated
 number of electron     137.0000000 magnetization      22.8000000
 keeping initial charge density in first step


--------------------------------------------------------------------------------------------------------


 Maximum index for non-local projection operator         7199
 Maximum index for augmentation-charges         6095 (set IRDMAX)


--------------------------------------------------------------------------------------------------------


 First call to EWALD:  gamma=   0.300
 Maximum number of real-space cells 3x 3x 3
 Maximum number of reciprocal cells 3x 3x 3

    FEWALD:  cpu time      0.0010: real time      0.0082


--------------------------------------- Iteration      1(   1)  ---------------------------------------


    POTLOK:  cpu time      0.3096: real time      0.3172
    SETDIJ:  cpu time      0.9232: real time      0.9309
     EDDAV:  cpu time     27.7767: real time     29.7126
 BZINTS: Fermi energy:   26.194640;  137.000000 electrons
         Band energy: 0.771127E+03;  BLOECHL correction:   -0.138056
       DOS:  cpu time      0.1056: real time      0.2080
    --------------------------------------------
      LOOP:  cpu time     29.1152: real time     31.1687

 eigenvalue-minimisations  : 13952
 total energy-change (2. order) : 0.1556153E+04  (-0.7469513E+04)
 number of electron     137.0000000 magnetization      22.8000000
 augmentation part      137.0000000 magnetization      22.8000000

 Free energy of the ion-electron system (eV)
  ---------------------------------------------------
  alpha Z        PSCENC =       565.71800941
  Ewald energy   TEWEN  =    -12988.12427022
  -Hartree energ DENC   =     -6194.09650533
  -exchange      EXHF   =         0.00000000
  -V(xc)+E(xc)   XCENC  =       319.55536743
  PAW double counting   =     16259.03785679   -16415.80398812
  entropy T*S    EENTRO =         0.00000000
  eigenvalues    EBANDS =       771.12668036
  atomic energy  EATOM  =     19238.73949937
  Solvation  Ediel_sol  =         0.00000000
  ---------------------------------------------------
  free energy    TOTEN  =      1556.15264970 eV

  energy without entropy =     1556.15264970  energy(sigma->0) =     1556.15264970


--------------------------------------------------------------------------------------------------------




--------------------------------------- Iteration      1(   2)  ---------------------------------------


     EDDAV:  cpu time     35.2261: real time     39.0662
 BZINTS: Fermi energy:   13.961598;  137.000000 electrons
         Band energy:-0.763174E+03;  BLOECHL correction:   -0.059546
       DOS:  cpu time      0.0893: real time      0.0932
    --------------------------------------------
      LOOP:  cpu time     35.3154: real time     39.1594

 eigenvalue-minimisations  : 12304
 total energy-change (2. order) :-0.1534301E+04  (-0.1453080E+04)
 number of electron     137.0000000 magnetization      22.8000000
 augmentation part      137.0000000 magnetization      22.8000000

 Free energy of the ion-electron system (eV)
  ---------------------------------------------------
  alpha Z        PSCENC =       565.71800941
  Ewald energy   TEWEN  =    -12988.12427022
  -Hartree energ DENC   =     -6194.09650533
  -exchange      EXHF   =         0.00000000
  -V(xc)+E(xc)   XCENC  =       319.55536743
  PAW double counting   =     16259.03785679   -16415.80398812
  entropy T*S    EENTRO =         0.00000000
  eigenvalues    EBANDS =      -763.17441929
  atomic energy  EATOM  =     19238.73949937
  Solvation  Ediel_sol  =         0.00000000
  ---------------------------------------------------
  free energy    TOTEN  =        21.85155004 eV

  energy without entropy =       21.85155004  energy(sigma->0) =       21.85155004


--------------------------------------------------------------------------------------------------------




--------------------------------------- Iteration      1(   3)  ---------------------------------------


     EDDAV:  cpu time     30.7454: real time     34.5630
 BZINTS: Fermi energy:   12.381044;  137.000000 electrons
         Band energy:-0.885517E+03;  BLOECHL correction:   -0.168183
       DOS:  cpu time      0.0864: real time      0.0869
    --------------------------------------------
      LOOP:  cpu time     30.8318: real time     34.6500

 eigenvalue-minimisations  : 13992
 total energy-change (2. order) :-0.1223421E+03  (-0.1094213E+03)
 number of electron     137.0000000 magnetization      22.8000000
 augmentation part      137.0000000 magnetization      22.8000000

 Free energy of the ion-electron system (eV)
  ---------------------------------------------------
  alpha Z        PSCENC =       565.71800941
  Ewald energy   TEWEN  =    -12988.12427022
  -Hartree energ DENC   =     -6194.09650533
  -exchange      EXHF   =         0.00000000
  -V(xc)+E(xc)   XCENC  =       319.55536743
  PAW double counting   =     16259.03785679   -16415.80398812
  entropy T*S    EENTRO =         0.00000000
  eigenvalues    EBANDS =      -885.51650595
  atomic energy  EATOM  =     19238.73949937
  Solvation  Ediel_sol  =         0.00000000
  ---------------------------------------------------
  free energy    TOTEN  =      -100.49053661 eV

  energy without entropy =     -100.49053661  energy(sigma->0) =     -100.49053661


--------------------------------------------------------------------------------------------------------




--------------------------------------- Iteration      1(   4)  ---------------------------------------


     EDDAV:  cpu time     26.5710: real time     28.4710
 BZINTS: Fermi energy:   12.276946;  137.000000 electrons
         Band energy:-0.892191E+03;  BLOECHL correction:   -0.170004
       DOS:  cpu time      0.0376: real time      0.0376
    --------------------------------------------
      LOOP:  cpu time     26.6086: real time     28.5084

 eigenvalue-minimisations  : 14456
 total energy-change (2. order) :-0.6674800E+01  (-0.6465370E+01)
 number of electron     137.0000000 magnetization      22.8000000
 augmentation part      137.0000000 magnetization      22.8000000

 Free energy of the ion-electron system (eV)
  ---------------------------------------------------
  alpha Z        PSCENC =       565.71800941
  Ewald energy   TEWEN  =    -12988.12427022
  -Hartree energ DENC   =     -6194.09650533
  -exchange      EXHF   =         0.00000000
  -V(xc)+E(xc)   XCENC  =       319.55536743
  PAW double counting   =     16259.03785679   -16415.80398812
  entropy T*S    EENTRO =         0.00000000
  eigenvalues    EBANDS =      -892.19130546
  atomic energy  EATOM  =     19238.73949937
  Solvation  Ediel_sol  =         0.00000000
  ---------------------------------------------------
  free energy    TOTEN  =      -107.16533613 eV

  energy without entropy =     -107.16533613  energy(sigma->0) =     -107.16533613


--------------------------------------------------------------------------------------------------------




--------------------------------------- Iteration      1(   5)  ---------------------------------------


     EDDAV:  cpu time     32.6563: real time     32.6582
 BZINTS: Fermi energy:   12.273253;  137.000000 electrons
         Band energy:-0.892411E+03;  BLOECHL correction:   -0.169728
       DOS:  cpu time      0.0357: real time      0.0357
    CHARGE:  cpu time      0.7446: real time      0.7518
    MIXING:  cpu time      0.0031: real time      0.0031
    --------------------------------------------
      LOOP:  cpu time     33.4397: real time     33.4488

 eigenvalue-minimisations  : 16496
 total energy-change (2. order) :-0.2193412E+00  (-0.2189127E+00)
 number of electron     137.0000034 magnetization      12.7361710
 augmentation part       48.2372889 magnetization       9.3977641

 Broyden mixing:
  rms(total) = 0.58656E+01    rms(broyden)= 0.58651E+01
  rms(prec ) = 0.94439E+01
  weight for this iteration     100.00

 Free energy of the ion-electron system (eV)
  ---------------------------------------------------
  alpha Z        PSCENC =       565.71800941
  Ewald energy   TEWEN  =    -12988.12427022
  -Hartree energ DENC   =     -6194.09650533
  -exchange      EXHF   =         0.00000000
  -V(xc)+E(xc)   XCENC  =       319.55536743
  PAW double counting   =     16259.03785679   -16415.80398812
  entropy T*S    EENTRO =         0.00000000
  eigenvalues    EBANDS =      -892.41064666
  atomic energy  EATOM  =     19238.73949937
  Solvation  Ediel_sol  =         0.00000000
  ---------------------------------------------------
  free energy    TOTEN  =      -107.38467733 eV

  energy without entropy =     -107.38467733  energy(sigma->0) =     -107.38467733


--------------------------------------------------------------------------------------------------------




--------------------------------------- Iteration      1(   6)  ---------------------------------------


    POTLOK:  cpu time      0.1715: real time      0.1715
    SETDIJ:  cpu time      0.9181: real time      0.9182
    EDDIAG:  cpu time      2.3246: real time      2.3317
  RMM-DIIS:  cpu time     15.1991: real time     15.2035
    ORTHCH:  cpu time      0.3893: real time      0.3895
 BZINTS: Fermi energy:   10.902232;  137.000000 electrons
         Band energy:-0.165392E+04;  BLOECHL correction:   -0.064503
       DOS:  cpu time      0.0343: real time      0.0343
    CHARGE:  cpu time      0.7407: real time      0.7407
    MIXING:  cpu time      0.0033: real time      0.0103
    --------------------------------------------
      LOOP:  cpu time     19.7808: real time     19.7996

 eigenvalue-minimisations  : 12884
 total energy-change (2. order) :-0.9833251E+02  (-0.5626368E+02)
 number of electron     137.0000034 magnetization      10.5472503
 augmentation part       58.5038076 magnetization       9.3876744

 Broyden mixing:
  rms(total) = 0.18752E+02    rms(broyden)= 0.18752E+02
  rms(prec ) = 0.21346E+02
  weight for this iteration     100.00

 eigenvalues of (default mixing * dielectric matrix)
  average eigenvalue GAMMA=   0.0567
  0.0567

 Free energy of the ion-electron system (eV)
  ---------------------------------------------------
  alpha Z        PSCENC =       565.71800941
  Ewald energy   TEWEN  =    -12988.12427022
  -Hartree energ DENC   =     -5561.47877013
  -exchange      EXHF   =         0.00000000
  -V(xc)+E(xc)   XCENC  =       295.41863182
  PAW double counting   =     16519.60655032   -16621.67907429
  entropy T*S    EENTRO =         0.00000000
  eigenvalues    EBANDS =     -1653.91776074
  atomic energy  EATOM  =     19238.73949937
  Solvation  Ediel_sol  =         0.00000000
  ---------------------------------------------------
  free energy    TOTEN  =      -205.71718446 eV

  energy without entropy =     -205.71718446  energy(sigma->0) =     -205.71718446


--------------------------------------------------------------------------------------------------------




--------------------------------------- Iteration      1(   7)  ---------------------------------------


    POTLOK:  cpu time      0.1743: real time      0.1743
    SETDIJ:  cpu time      1.4233: real time      1.4234
    EDDIAG:  cpu time      3.9640: real time      3.9663
  RMM-DIIS:  cpu time     18.5916: real time     18.6024
    ORTHCH:  cpu time      0.4654: real time      0.4657
 BZINTS: Fermi energy:   10.271166;  137.000000 electrons
         Band energy:-0.143854E+04;  BLOECHL correction:   -0.052513
       DOS:  cpu time      0.1215: real time      0.1219
    CHARGE:  cpu time      1.3008: real time      1.3010
    MIXING:  cpu time      0.0053: real time      0.0055
    --------------------------------------------
      LOOP:  cpu time     26.0462: real time     26.0606

 eigenvalue-minimisations  : 12288
 total energy-change (2. order) : 0.5842928E+02  (-0.6734509E+01)
 number of electron     137.0000034 magnetization       7.7369901
 augmentation part       56.8916541 magnetization       6.6769221

 Broyden mixing:
  rms(total) = 0.80541E+01    rms(broyden)= 0.80541E+01
  rms(prec ) = 0.10950E+02
  weight for this iteration     100.00

 eigenvalues of (default mixing * dielectric matrix)
  average eigenvalue GAMMA=   0.4398
  0.4398  0.4398

 Free energy of the ion-electron system (eV)
  ---------------------------------------------------
  alpha Z        PSCENC =       565.71800941
  Ewald energy   TEWEN  =    -12988.12427022
  -Hartree energ DENC   =     -5681.93121491
  -exchange      EXHF   =         0.00000000
  -V(xc)+E(xc)   XCENC  =       297.75730976
  PAW double counting   =     17343.16529700   -17484.06922075
  entropy T*S    EENTRO =         0.00000000
  eigenvalues    EBANDS =     -1438.54331153
  atomic energy  EATOM  =     19238.73949937
  Solvation  Ediel_sol  =         0.00000000
  ---------------------------------------------------
  free energy    TOTEN  =      -147.28790187 eV

  energy without entropy =     -147.28790187  energy(sigma->0) =     -147.28790187


--------------------------------------------------------------------------------------------------------




--------------------------------------- Iteration      1(   8)  ---------------------------------------


    POTLOK:  cpu time      0.2604: real time      0.2645
    SETDIJ:  cpu time      1.7733: real time      1.8229
    EDDIAG:  cpu time      4.6834: real time      4.6863
  RMM-DIIS:  cpu time     18.3727: real time     20.8769
    ORTHCH:  cpu time      0.6864: real time      0.6879
 BZINTS: Fermi energy:    9.963607;  137.000000 electrons
         Band energy:-0.122411E+04;  BLOECHL correction:   -0.096616
       DOS:  cpu time      0.0790: real time      0.0797
    CHARGE:  cpu time      1.7780: real time      1.7794
    MIXING:  cpu time      0.0055: real time      0.0128
    --------------------------------------------
      LOOP:  cpu time     27.6387: real time     30.2102

 eigenvalue-minimisations  : 12675
 total energy-change (2. order) : 0.1958683E+02  (-0.9470796E+01)
 number of electron     137.0000034 magnetization       6.1934627
 augmentation part       57.5802410 magnetization       5.5729430

 Broyden mixing:
  rms(total) = 0.50788E+01    rms(broyden)= 0.50787E+01
  rms(prec ) = 0.77301E+01
  weight for this iteration     100.00

 eigenvalues of (default mixing * dielectric matrix)
  average eigenvalue GAMMA=   0.4200
  0.4851  0.4851  0.2898

 Free energy of the ion-electron system (eV)
  ---------------------------------------------------
  alpha Z        PSCENC =       565.71800941
  Ewald energy   TEWEN  =    -12988.12427022
  -Hartree energ DENC   =     -5865.22854017
  -exchange      EXHF   =         0.00000000
  -V(xc)+E(xc)   XCENC  =       301.88615298
  PAW double counting   =     17811.11874325   -17967.70178010
  entropy T*S    EENTRO =         0.00000000
  eigenvalues    EBANDS =     -1224.10888723
  atomic energy  EATOM  =     19238.73949937
  Solvation  Ediel_sol  =         0.00000000
  ---------------------------------------------------
  free energy    TOTEN  =      -127.70107271 eV

  energy without entropy =     -127.70107271  energy(sigma->0) =     -127.70107271


--------------------------------------------------------------------------------------------------------




--------------------------------------- Iteration      1(   9)  ---------------------------------------


    POTLOK:  cpu time      0.2947: real time      0.5369
    SETDIJ:  cpu time      1.6489: real time      2.3891
    EDDIAG:  cpu time      4.0037: real time      5.9666
  RMM-DIIS:  cpu time     18.9249: real time     21.7270
    ORTHCH:  cpu time      0.6629: real time      0.6637
 BZINTS: Fermi energy:    9.786332;  137.000000 electrons
         Band energy:-0.112517E+04;  BLOECHL correction:   -0.096896
       DOS:  cpu time      0.0834: real time      0.0855
    CHARGE:  cpu time      1.6996: real time      1.8285
    MIXING:  cpu time      0.0054: real time      0.0057
    --------------------------------------------
      LOOP:  cpu time     27.3236: real time     33.2029

 eigenvalue-minimisations  : 12288
 total energy-change (2. order) : 0.2361656E+02  (-0.2277252E+01)
 number of electron     137.0000031 magnetization       3.8104344
 augmentation part       56.1320589 magnetization       3.5229067

 Broyden mixing:
  rms(total) = 0.20957E+01    rms(broyden)= 0.20956E+01
  rms(prec ) = 0.34305E+01
  weight for this iteration     100.00

 eigenvalues of (default mixing * dielectric matrix)
  average eigenvalue GAMMA=   0.5305
  0.7267  0.5334  0.5334  0.3285

 Free energy of the ion-electron system (eV)
  ---------------------------------------------------
  alpha Z        PSCENC =       565.71800941
  Ewald energy   TEWEN  =    -12988.12427022
  -Hartree energ DENC   =     -5926.22878932
  -exchange      EXHF   =         0.00000000
  -V(xc)+E(xc)   XCENC  =       303.66112943
  PAW double counting   =     17953.50905480   -18126.19000215
  entropy T*S    EENTRO =         0.00000000
  eigenvalues    EBANDS =     -1125.16914007
  atomic energy  EATOM  =     19238.73949937
  Solvation  Ediel_sol  =         0.00000000
  ---------------------------------------------------
  free energy    TOTEN  =      -104.08450873 eV

  energy without entropy =     -104.08450873  energy(sigma->0) =     -104.08450873


--------------------------------------------------------------------------------------------------------




--------------------------------------- Iteration      1(  10)  ---------------------------------------


    POTLOK:  cpu time      0.2554: real time      0.2964
    SETDIJ:  cpu time      1.8240: real time      2.0652
    EDDIAG:  cpu time      4.7713: real time      6.1310
  RMM-DIIS:  cpu time     18.8399: real time     18.8741
    ORTHCH:  cpu time      0.3364: real time      0.3364
 BZINTS: Fermi energy:   10.243363;  137.000000 electrons
         Band energy:-0.107702E+04;  BLOECHL correction:   -0.055450
       DOS:  cpu time      0.0370: real time      0.0370
    CHARGE:  cpu time      0.7406: real time      0.7406
    MIXING:  cpu time      0.0034: real time      0.0034
    --------------------------------------------
      LOOP:  cpu time     26.8080: real time     28.4840

 eigenvalue-minimisations  : 12496
 total energy-change (2. order) : 0.1890204E+01  (-0.8836584E+00)
 number of electron     137.0000030 magnetization       0.6713284
 augmentation part       53.9863214 magnetization       0.3212351

 Broyden mixing:
  rms(total) = 0.15250E+01    rms(broyden)= 0.15248E+01
  rms(prec ) = 0.27949E+01
  weight for this iteration     100.00

 eigenvalues of (default mixing * dielectric matrix)
  average eigenvalue GAMMA=   0.6171
  1.2520  0.5334  0.5334  0.3834  0.3834

 Free energy of the ion-electron system (eV)
  ---------------------------------------------------
  alpha Z        PSCENC =       565.71800941
  Ewald energy   TEWEN  =    -12988.12427022
  -Hartree energ DENC   =     -5970.73142514
  -exchange      EXHF   =         0.00000000
  -V(xc)+E(xc)   XCENC  =       304.91437035
  PAW double counting   =     18132.41781377   -18308.10759617
  entropy T*S    EENTRO =         0.00000000
  eigenvalues    EBANDS =     -1077.02070599
  atomic energy  EATOM  =     19238.73949937
  Solvation  Ediel_sol  =         0.00000000
  ---------------------------------------------------
  free energy    TOTEN  =      -102.19430461 eV

  energy without entropy =     -102.19430461  energy(sigma->0) =     -102.19430461


--------------------------------------------------------------------------------------------------------




--------------------------------------- Iteration      1(  11)  ---------------------------------------


    POTLOK:  cpu time      0.1720: real time      0.1720
    SETDIJ:  cpu time      1.2439: real time      1.2440
    EDDIAG:  cpu time      3.2538: real time      3.2539
  RMM-DIIS:  cpu time     18.7262: real time     18.7269
    ORTHCH:  cpu time      0.7199: real time      0.7199
 BZINTS: Fermi energy:   10.177446;  137.000000 electrons
         Band energy:-0.104303E+04;  BLOECHL correction:   -0.093676
       DOS:  cpu time      0.0904: real time      0.0904
    CHARGE:  cpu time      1.2341: real time      1.2341
    MIXING:  cpu time      0.0059: real time      0.0059
    --------------------------------------------
      LOOP:  cpu time     25.4460: real time     25.4470

 eigenvalue-minimisations  : 12356
 total energy-change (2. order) : 0.3030360E-01  (-0.2974018E+00)
 number of electron     137.0000027 magnetization      -0.3750397
 augmentation part       53.9870358 magnetization      -0.5433627

 Broyden mixing:
  rms(total) = 0.10975E+01    rms(broyden)= 0.10967E+01
  rms(prec ) = 0.17410E+01
  weight for this iteration     100.00

 eigenvalues of (default mixing * dielectric matrix)
  average eigenvalue GAMMA=   0.6369
  1.5833  0.5884  0.5884  0.3701  0.3456  0.3456

 Free energy of the ion-electron system (eV)
  ---------------------------------------------------
  alpha Z        PSCENC =       565.71800941
  Ewald energy   TEWEN  =    -12988.12427022
  -Hartree energ DENC   =     -6009.54715750
  -exchange      EXHF   =         0.00000000
  -V(xc)+E(xc)   XCENC  =       305.72887938
  PAW double counting   =     18459.75137543   -18631.40500547
  entropy T*S    EENTRO =         0.00000000
  eigenvalues    EBANDS =     -1043.02533141
  atomic energy  EATOM  =     19238.73949937
  Solvation  Ediel_sol  =         0.00000000
  ---------------------------------------------------
  free energy    TOTEN  =      -102.16400101 eV

  energy without entropy =     -102.16400101  energy(sigma->0) =     -102.16400101


--------------------------------------------------------------------------------------------------------




--------------------------------------- Iteration      1(  12)  ---------------------------------------


    POTLOK:  cpu time      0.3562: real time      0.3563
    SETDIJ:  cpu time      1.7052: real time      1.7052
    EDDIAG:  cpu time      3.7683: real time      3.7684
  RMM-DIIS:  cpu time     14.1378: real time     14.1382
    ORTHCH:  cpu time      0.3381: real time      0.3381
 BZINTS: Fermi energy:   10.093650;  137.000000 electrons
         Band energy:-0.105765E+04;  BLOECHL correction:   -0.099211
       DOS:  cpu time      0.0368: real time      0.0368
    CHARGE:  cpu time      0.7437: real time      0.7437
    MIXING:  cpu time      0.0035: real time      0.0035
    --------------------------------------------
      LOOP:  cpu time     21.0894: real time     21.0901

 eigenvalue-minimisations  : 12288
 total energy-change (2. order) : 0.3898673E+00  (-0.7323874E-01)
 number of electron     137.0000028 magnetization      -0.2043766
 augmentation part       54.2934779 magnetization      -0.3172916

 Broyden mixing:
  rms(total) = 0.48357E+00    rms(broyden)= 0.48322E+00
  rms(prec ) = 0.71413E+00
  weight for this iteration     100.00

 eigenvalues of (default mixing * dielectric matrix)
  average eigenvalue GAMMA=   0.6128
  1.3890  0.6139  0.6139  0.3474  0.3474  0.5287  0.4493

 Free energy of the ion-electron system (eV)
  ---------------------------------------------------
  alpha Z        PSCENC =       565.71800941
  Ewald energy   TEWEN  =    -12988.12427022
  -Hartree energ DENC   =     -5995.54141843
  -exchange      EXHF   =         0.00000000
  -V(xc)+E(xc)   XCENC  =       305.34980648
  PAW double counting   =     18636.02021502   -18806.29063646
  entropy T*S    EENTRO =         0.00000000
  eigenvalues    EBANDS =     -1057.64533892
  atomic energy  EATOM  =     19238.73949937
  Solvation  Ediel_sol  =         0.00000000
  ---------------------------------------------------
  free energy    TOTEN  =      -101.77413374 eV

  energy without entropy =     -101.77413374  energy(sigma->0) =     -101.77413374


--------------------------------------------------------------------------------------------------------




--------------------------------------- Iteration      1(  13)  ---------------------------------------


    POTLOK:  cpu time      0.1758: real time      0.1758
    SETDIJ:  cpu time      1.0399: real time      1.0399
    EDDIAG:  cpu time      2.5144: real time      2.5145
  RMM-DIIS:  cpu time     15.5103: real time     15.5115
    ORTHCH:  cpu time      0.6128: real time      0.6130
 BZINTS: Fermi energy:   10.074443;  137.000000 electrons
         Band energy:-0.106187E+04;  BLOECHL correction:   -0.099544
       DOS:  cpu time      0.0871: real time      0.0871
    CHARGE:  cpu time      1.3179: real time      1.3186
    MIXING:  cpu time      0.0058: real time      0.0059
    --------------------------------------------
      LOOP:  cpu time     21.2639: real time     21.2664

 eigenvalue-minimisations  : 11596
 total energy-change (2. order) :-0.4402896E-02  (-0.2681693E-01)
 number of electron     137.0000028 magnetization       0.0370470
 augmentation part       54.3875486 magnetization      -0.0394016

 Broyden mixing:
  rms(total) = 0.43822E+00    rms(broyden)= 0.43794E+00
  rms(prec ) = 0.65066E+00
  weight for this iteration     100.00

 eigenvalues of (default mixing * dielectric matrix)
  average eigenvalue GAMMA=   0.5951
  1.1261  1.1261  0.5951  0.5951  0.4118  0.3490  0.3490  0.2082

 Free energy of the ion-electron system (eV)
  ---------------------------------------------------
  alpha Z        PSCENC =       565.71800941
  Ewald energy   TEWEN  =    -12988.12427022
  -Hartree energ DENC   =     -5991.44389931
  -exchange      EXHF   =         0.00000000
  -V(xc)+E(xc)   XCENC  =       305.24199597
  PAW double counting   =     18660.34553064   -18830.38576453
  entropy T*S    EENTRO =         0.00000000
  eigenvalues    EBANDS =     -1061.86963798
  atomic energy  EATOM  =     19238.73949937
  Solvation  Ediel_sol  =         0.00000000
  ---------------------------------------------------
  free energy    TOTEN  =      -101.77853664 eV

  energy without entropy =     -101.77853664  energy(sigma->0) =     -101.77853664


--------------------------------------------------------------------------------------------------------




--------------------------------------- Iteration      1(  14)  ---------------------------------------


    POTLOK:  cpu time      0.4840: real time      0.4882
    SETDIJ:  cpu time      1.7815: real time      1.7978
    EDDIAG:  cpu time      4.8392: real time      4.8402
  RMM-DIIS:  cpu time     19.4482: real time     19.7695
    ORTHCH:  cpu time      0.5289: real time      0.9909
 BZINTS: Fermi energy:   10.052355;  137.000000 electrons
         Band energy:-0.106558E+04;  BLOECHL correction:   -0.099365
       DOS:  cpu time      0.0822: real time      0.1692
    CHARGE:  cpu time      1.3127: real time      2.0281
    MIXING:  cpu time      0.0059: real time      0.0061
    --------------------------------------------
      LOOP:  cpu time     28.4825: real time     30.0900

 eigenvalue-minimisations  : 11520
 total energy-change (2. order) : 0.3760608E-01  (-0.9655937E-02)
 number of electron     137.0000029 magnetization       0.0178796
 augmentation part       54.4799104 magnetization      -0.0073542

 Broyden mixing:
  rms(total) = 0.27315E+00    rms(broyden)= 0.27304E+00
  rms(prec ) = 0.37629E+00
  weight for this iteration     100.00

 eigenvalues of (default mixing * dielectric matrix)
  average eigenvalue GAMMA=   0.6936
  1.4607  1.4607  0.6158  0.6158  0.7755  0.3522  0.3522  0.4103  0.1988

 Free energy of the ion-electron system (eV)
  ---------------------------------------------------
  alpha Z        PSCENC =       565.71800941
  Ewald energy   TEWEN  =    -12988.12427022
  -Hartree energ DENC   =     -5988.20842442
  -exchange      EXHF   =         0.00000000
  -V(xc)+E(xc)   XCENC  =       305.16921672
  PAW double counting   =     18687.55447232   -18857.00888174
  entropy T*S    EENTRO =         0.00000000
  eigenvalues    EBANDS =     -1065.58055199
  atomic energy  EATOM  =     19238.73949937
  Solvation  Ediel_sol  =         0.00000000
  ---------------------------------------------------
  free energy    TOTEN  =      -101.74093056 eV

[...]
     92      17.5229      0.00000
     93      17.9006      0.00000
     94      17.9835      0.00000
     95      18.4138      0.00000
     96      18.5708      0.00000

 k-point    32 :       0.3750    0.1250   -0.3750
  band No.  band energies     occupation 
      1     -53.4589      1.00000
      2     -53.4540      1.00000
      3     -53.4452      1.00000
      4     -53.4215      1.00000
      5     -53.4195      1.00000
      6     -53.3903      1.00000
      7     -53.3872      1.00000
      8     -53.3312      1.00000
      9     -53.3047      1.00000
     10     -32.0146      1.00000
     11     -32.0139      1.00000
     12     -31.9406      1.00000
     13     -31.9402      1.00000
     14     -31.9192      1.00000
     15     -31.9165      1.00000
     16     -31.9093      1.00000
     17     -31.9077      1.00000
     18     -31.9068      1.00000
     19     -31.9056      1.00000
     20     -31.8988      1.00000
     21     -31.8969      1.00000
     22       1.1150      1.00000
     23       2.0879      1.00000
     24       2.1788      1.00000
     25       2.9912      1.00000
     26       3.9535      1.00000
     27       4.3743      1.00000
     28       4.4528      1.00000
     29       4.8412      1.00000
     30       5.5210      1.00000
     31       6.0918      1.00000
     32       6.1332      1.00000
     33       6.1877      1.00000
     34       6.3760      1.00000
     35       6.4278      1.00000
     36       6.4553      1.00000
     37       6.5369      1.00000
     38       6.8921      1.00000
     39       6.9545      1.00000
     40       7.0155      1.00000
     41       7.1163      1.00000
     42       7.2000      1.00000
     43       7.3426      1.00000
     44       7.3747      1.00000
     45       7.4210      1.00000
     46       8.0107      1.00000
     47       8.0930      1.00000
     48       8.1054      1.00000
     49       8.1155      1.00000
     50       8.2157      1.00000
     51       8.3386      1.00000
     52       8.4753      1.00000
     53       8.5781      1.00000
     54       8.6067      1.00000
     55       8.6602      1.00000
     56       8.6776      1.00000
     57       8.6810      1.00000
     58       8.7076      1.00000
     59       8.8341      1.00000
     60       8.8651      1.00000
     61       8.9221      1.00000
     62       8.9977      1.00000
     63       9.1256      1.00000
     64       9.3110      1.00000
     65       9.3976      1.00000
     66       9.4384      1.00000
     67       9.6700      1.00000
     68       9.7632      1.00000
     69      10.2727      0.41508
     70      11.1474      0.00000
     71      11.2744      0.00000
     72      11.4321      0.00000
     73      11.5724      0.00000
     74      11.9279      0.00000
     75      12.1317      0.00000
     76      12.2568      0.00000
     77      13.2131      0.00000
     78      14.1265      0.00000
     79      14.6118      0.00000
     80      14.8642      0.00000
     81      14.9646      0.00000
     82      15.0511      0.00000
     83      15.3171      0.00000
     84      15.4282      0.00000
     85      15.5616      0.00000
     86      16.2055      0.00000
     87      16.6318      0.00000
     88      16.7418      0.00000
     89      16.9863      0.00000
     90      17.0690      0.00000
     91      17.3874      0.00000
     92      17.5243      0.00000
     93      17.9026      0.00000
     94      17.9836      0.00000
     95      18.4148      0.00000
     96      18.5711      0.00000


--------------------------------------------------------------------------------------------------------


 soft charge-density along one line, spin component           1
         0         1         2         3         4         5         6         7         8         9
 total charge-density along one line
 
 soft charge-density along one line, spin component           2
         0         1         2         3         4         5         6         7         8         9
 total charge-density along one line
 
 pseudopotential strength for first ion, spin component:           1
  8.349  14.224  -0.000  -0.000  -0.000  -0.001  -0.001  -0.001
 14.224  24.233  -0.001  -0.001  -0.001  -0.002  -0.003  -0.002
 -0.000  -0.001   1.996  -0.000  -0.000   5.732  -0.000  -0.000
 -0.000  -0.001  -0.000   1.996  -0.000  -0.000   5.732  -0.000
 -0.000  -0.001  -0.000  -0.000   1.996  -0.000  -0.000   5.732
 -0.001  -0.002   5.732  -0.000  -0.000  16.389  -0.000  -0.001
 -0.001  -0.003  -0.000   5.732  -0.000  -0.000  16.388  -0.000
 -0.001  -0.002  -0.000  -0.000   5.732  -0.001  -0.000  16.389
 pseudopotential strength for first ion, spin component:           2
  8.349  14.224  -0.000  -0.000  -0.000  -0.001  -0.001  -0.001
 14.224  24.233  -0.001  -0.001  -0.001  -0.002  -0.003  -0.002
 -0.000  -0.001   1.996  -0.000  -0.000   5.732  -0.000  -0.000
 -0.000  -0.001  -0.000   1.996  -0.000  -0.000   5.732  -0.000
 -0.000  -0.001  -0.000  -0.000   1.996  -0.000  -0.000   5.732
 -0.001  -0.002   5.732  -0.000  -0.000  16.389  -0.000  -0.001
 -0.001  -0.003  -0.000   5.732  -0.000  -0.000  16.388  -0.000
 -0.001  -0.002  -0.000  -0.000   5.732  -0.001  -0.000  16.389
 total augmentation occupancy for first ion, spin component:           1
  4.452  -1.300   0.031   0.030   0.031  -0.004  -0.004  -0.004
 -1.300   0.393  -0.007  -0.005  -0.007   0.001   0.001   0.001
  0.031  -0.007   1.404   0.009  -0.134  -0.101  -0.000   0.009
  0.030  -0.005   0.009   1.416   0.009  -0.000  -0.101  -0.000
  0.031  -0.007  -0.134   0.009   1.404   0.009  -0.000  -0.101
 -0.004   0.001  -0.101  -0.000   0.009   0.008  -0.000  -0.001
 -0.004   0.001  -0.000  -0.101  -0.000  -0.000   0.007  -0.000
 -0.004   0.001   0.009  -0.000  -0.101  -0.001  -0.000   0.008
 total augmentation occupancy for first ion, spin component:           2
 -0.000   0.000   0.000  -0.000   0.000  -0.000   0.000  -0.000
  0.000  -0.000  -0.000  -0.000  -0.000   0.000  -0.000   0.000
  0.000  -0.000   0.000  -0.000  -0.000  -0.000  -0.000   0.000
 -0.000  -0.000  -0.000  -0.000   0.000   0.000   0.000  -0.000
  0.000  -0.000  -0.000   0.000   0.000   0.000  -0.000  -0.000
 -0.000   0.000  -0.000   0.000   0.000   0.000  -0.000  -0.000
  0.000  -0.000  -0.000   0.000  -0.000  -0.000  -0.000   0.000
 -0.000   0.000   0.000  -0.000  -0.000  -0.000   0.000   0.000


------------------------ aborting loop because EDIFF is reached ----------------------------------------





 total charge

# of ion       s       p       d       tot
------------------------------------------
    1        0.391   0.413   0.000   0.804
    2        0.391   0.413   0.000   0.804
    3        0.391   0.413   0.000   0.804
    4        0.391   0.413   0.000   0.805
    5        0.391   0.413   0.000   0.804
    6        0.391   0.413   0.000   0.805
    7        0.391   0.413   0.000   0.804
    8        0.391   0.413   0.000   0.804
    9        0.419   0.463   7.495   8.376
   10        0.286   6.217   8.046  14.549
   11        0.292   6.237   8.058  14.587
   12        0.292   6.222   8.063  14.577
   13        0.333   6.250   6.270  12.852
   14        0.333   6.249   6.270  12.852
   15        0.340   6.266   6.280  12.886
   16        0.340   6.266   6.280  12.886
--------------------------------------------------
tot          5.766  47.475  56.762 110.002



 magnetization (x)

# of ion       s       p       d       tot
------------------------------------------
    1       -0.000  -0.000   0.000  -0.000
    2        0.000   0.000   0.000   0.000
    3        0.000   0.000   0.000   0.000
    4       -0.000  -0.000   0.000  -0.000
    5       -0.000  -0.000   0.000  -0.000
    6        0.000  -0.000   0.000   0.000
    7       -0.000  -0.000   0.000  -0.000
    8        0.000   0.000   0.000   0.000
    9       -0.000   0.000  -0.000  -0.000
   10        0.000  -0.000   0.000   0.000
   11        0.000   0.000   0.000   0.000
   12        0.000   0.000  -0.000  -0.000
   13       -0.000  -0.000  -0.000  -0.000
   14       -0.000  -0.000  -0.000  -0.000
   15       -0.000  -0.000  -0.000  -0.000
   16       -0.000  -0.000   0.000  -0.000
--------------------------------------------------
tot         -0.000   0.000  -0.000  -0.000
 
    CHARGE:  cpu time      0.7534: real time      0.7534
    FORLOC:  cpu time      0.0154: real time      0.0154
    FORNL :  cpu time      6.1317: real time      6.1326
    STRESS:  cpu time     22.6222: real time     22.6264
    FORCOR:  cpu time      0.2834: real time      0.2834
    FORHAR:  cpu time      0.0507: real time      0.0507
    MIXING:  cpu time      0.0058: real time      0.0058
    OFIELD:  cpu time      0.0000: real time      0.0000

  FORCE on cell =-STRESS in cart. coord.  units (eV):
  Direction    XX          YY          ZZ          XY          YZ          ZX
  --------------------------------------------------------------------------------------
  Alpha Z   570.73861   570.73861   570.73861
  Ewald   -4244.96583 -4243.75262 -4537.84802     0.02424    -0.00176     0.00198
  Hartree  2073.43559  2074.49583  1823.71046     0.06373    -0.02560    -0.02872
  E(xc)    -762.63714  -762.63707  -762.69634    -0.00154    -0.00018    -0.00019
  Local    -143.12206  -145.44512   400.80826    -0.33546     0.07907     0.07865
  n-local  -253.52248  -253.50360  -254.00914     0.03340    -0.00648    -0.00593
  augment   994.36971   994.39831   995.59564     0.11048    -0.01751    -0.01754
  Kinetic  1764.43227  1764.49003  1762.33547     0.14450    -0.01736    -0.01733
  Fock        0.00000     0.00000     0.00000     0.00000     0.00000     0.00000
  -------------------------------------------------------------------------------------
  Total      -1.27133    -1.21564    -1.36508     0.03936     0.01018     0.01093
  in kB     -10.00469    -9.56645   -10.74245     0.30971     0.08011     0.08603
  external pressure =      -10.10 kB  Pullay stress =        0.00 kB


 VOLUME and BASIS-vectors are now :
 -----------------------------------------------------------------------------
  energy-cutoff  :      520.00
  volume of cell :      203.59
      direct lattice vectors                 reciprocal lattice vectors
     5.812111246 -0.000245176 -0.000160152     0.172054519  0.000012808 -0.000003077
    -0.000432575  5.811087672 -0.000123628     0.000007259  0.172084825 -0.000003028
     0.000107796  0.000106075  6.027996347     0.000004571  0.000003530  0.165892602

  length of vectors
     5.812111254  5.811087689  6.027996349     0.172054519  0.172084825  0.165892602


 FORCES acting on ions
    electron-ion (+dipol)            ewald-force                    non-local-force                 convergence-correction
 -----------------------------------------------------------------------------------------------
   -.166E+02 -.166E+02 -.185E+02   0.171E+02 0.171E+02 0.191E+02   -.500E+00 -.498E+00 -.546E+00   -.773E-02 -.796E-02 -.151E-01
   -.166E+02 0.166E+02 -.185E+02   0.171E+02 -.171E+02 0.191E+02   -.499E+00 0.499E+00 -.548E+00   -.770E-02 0.797E-02 -.150E-01
   0.167E+02 -.166E+02 -.187E+02   -.172E+02 0.171E+02 0.193E+02   0.508E+00 -.506E+00 -.616E+00   0.748E-02 -.772E-02 -.154E-01
   0.167E+02 0.166E+02 -.187E+02   -.172E+02 -.171E+02 0.193E+02   0.509E+00 0.507E+00 -.614E+00   0.742E-02 0.771E-02 -.155E-01
   0.167E+02 -.166E+02 0.187E+02   -.172E+02 0.171E+02 -.193E+02   0.506E+00 -.505E+00 0.615E+00   0.746E-02 -.775E-02 0.154E-01
   0.167E+02 0.166E+02 0.187E+02   -.172E+02 -.171E+02 -.193E+02   0.508E+00 0.507E+00 0.614E+00   0.744E-02 0.774E-02 0.155E-01
   -.166E+02 -.166E+02 0.185E+02   0.171E+02 0.171E+02 -.191E+02   -.502E+00 -.499E+00 0.548E+00   -.769E-02 -.794E-02 0.151E-01
   -.166E+02 0.166E+02 0.185E+02   0.171E+02 -.171E+02 -.191E+02   -.499E+00 0.497E+00 0.548E+00   -.771E-02 0.796E-02 0.150E-01
   -.875E+00 -.328E-02 0.751E-02   0.805E+00 0.302E-02 -.754E-02   0.727E-01 0.574E-03 -.780E-04   -.380E-03 0.432E-03 -.109E-04
   -.233E+01 -.336E-02 0.247E-01   0.220E+01 0.392E-02 -.246E-01   0.140E+00 -.286E-03 -.705E-04   -.428E-02 -.149E-03 -.910E-05
   0.252E+01 -.236E-02 -.188E-02   -.240E+01 0.192E-02 0.137E-02   -.139E+00 0.167E-03 0.342E-03   0.459E-02 0.267E-03 0.410E-05
   0.195E+01 -.170E-01 -.265E-01   -.182E+01 0.168E-01 0.268E-01   -.138E+00 0.722E-03 -.127E-04   0.140E-02 -.420E-03 -.677E-04
   0.246E+01 0.547E-03 0.671E-02   -.245E+01 -.972E-03 -.655E-02   -.270E-01 0.563E-03 -.133E-03   0.271E-02 -.189E-03 -.103E-03
   -.209E+01 0.465E-02 0.324E-02   0.208E+01 -.417E-02 -.343E-02   0.214E-01 -.425E-03 0.828E-04   -.150E-02 0.922E-05 0.103E-03
   -.237E+01 0.443E-02 -.801E-02   0.235E+01 -.384E-02 0.798E-02   0.303E-01 -.351E-03 0.107E-03   0.130E-03 -.851E-03 0.365E-04
   0.339E+00 0.196E-01 -.391E-02   -.313E+00 -.202E-01 0.403E-02   -.342E-01 -.405E-03 -.963E-04   0.739E-03 0.179E-03 -.131E-03
 -----------------------------------------------------------------------------------------------
   0.444E-01 -.712E-03 -.120E-03   -.184E-13 0.173E-14 -.857E-14   -.417E-01 0.142E-02 0.357E-03   0.239E-02 -.707E-03 -.170E-03
 
 
 POSITION                                       TOTAL-FORCE (eV/Angst)
 -----------------------------------------------------------------------------------
      0.01866      2.92445      1.51990        -0.006157     -0.004779      0.001518
      0.01848      5.79219      1.51981        -0.005162      0.004787      0.003276
      2.88682      2.92429      1.52960         0.007891     -0.005776     -0.030192
      2.88660      5.79216      1.52957         0.006880      0.005778     -0.031578
      2.88699      2.92425      4.49814         0.006543     -0.005970      0.030091
      2.88670      5.79223      4.49805         0.007939      0.006756      0.032121
      0.01881      2.92456      4.50793        -0.005891     -0.004028     -0.001758
      0.01849      5.79231      4.50796        -0.005758      0.003715     -0.003375
      1.45078      4.35830      3.01391         0.002722      0.000737     -0.000123
      4.35655      1.45257     -0.00014         0.010046      0.000126      0.000089
      1.45524      4.35825     -0.00014        -0.007832     -0.000002     -0.000163
      4.36168      1.45264      3.01380        -0.010348      0.000036      0.000191
      1.45720      1.45271     -0.00006        -0.013516     -0.000051     -0.000076
      4.35501      4.35811     -0.00021         0.009058      0.000064     -0.000012
      1.44870      1.45278      3.01393         0.011314     -0.000608      0.000106
      4.36224      4.35823      3.01379        -0.007727     -0.000785     -0.000115
 -----------------------------------------------------------------------------------
    total drift:                                0.005020      0.000003      0.000068


--------------------------------------------------------------------------------------------------------



  FREE ENERGIE OF THE ION-ELECTRON SYSTEM (eV)
  ---------------------------------------------------
  free  energy   TOTEN  =      -101.72424254 eV

  energy  without entropy=     -101.72424254  energy(sigma->0) =     -101.72424254
 
 d Force =-0.9679800E-04[-0.104E-03,-0.898E-04]  d Energy = 0.2999415E-01-0.301E-01
 d Force = 0.1442539E-01[ 0.142E-01, 0.146E-01]  d Ewald  =-0.5853195E+02 0.585E+02


--------------------------------------------------------------------------------------------------------


    POTLOK:  cpu time      2.0059: real time      2.0060


--------------------------------------------------------------------------------------------------------




--------------------------------------------------------------------------------------------------------


  
 reached required accuracy - stopping structural energy minimisation
     LOOP+:  cpu time    264.2276: real time    264.4668
 -----------------------------------------------------------------------------
|                                                                             |
|           W    W    AA    RRRRR   N    N  II  N    N   GGGG   !!!           |
|           W    W   A  A   R    R  NN   N  II  NN   N  G    G  !!!           |
|           W    W  A    A  R    R  N N  N  II  N N  N  G       !!!           |
|           W WW W  AAAAAA  RRRRR   N  N N  II  N  N N  G  GGG   !            |
|           WW  WW  A    A  R   R   N   NN  II  N   NN  G    G                |
|           W    W  A    A  R    R  N    N  II  N    N   GGGG   !!!           |
|                                                                             |
|     Tetrahedron method does not include variations of the Fermi             |
|     occupations, so forces and stress will be inaccurate. We suggest        |
|     using a different smearing scheme ISMEAR = 1 or 2 for metals in         |
|     relaxations.                                                            |
|                                                                             |
 -----------------------------------------------------------------------------

    4ORBIT:  cpu time      0.0000: real time      0.0000



 total charge

# of ion       s       p       d       tot
------------------------------------------
    1        0.391   0.413   0.000   0.804
    2        0.391   0.413   0.000   0.804
    3        0.391   0.413   0.000   0.804
    4        0.391   0.413   0.000   0.805
    5        0.391   0.413   0.000   0.804
    6        0.391   0.413   0.000   0.805
    7        0.391   0.413   0.000   0.804
    8        0.391   0.413   0.000   0.804
    9        0.419   0.463   7.495   8.376
   10        0.286   6.217   8.046  14.549
   11        0.292   6.237   8.058  14.587
   12        0.292   6.222   8.063  14.577
   13        0.333   6.250   6.270  12.852
   14        0.333   6.249   6.270  12.852
   15        0.340   6.266   6.280  12.886
   16        0.340   6.266   6.280  12.886
--------------------------------------------------
tot          5.766  47.475  56.762 110.002



 magnetization (x)

# of ion       s       p       d       tot
------------------------------------------
    1       -0.000  -0.000   0.000  -0.000
    2        0.000   0.000   0.000   0.000
    3        0.000   0.000   0.000   0.000
    4       -0.000  -0.000   0.000  -0.000
    5       -0.000  -0.000   0.000  -0.000
    6        0.000  -0.000   0.000   0.000
    7       -0.000  -0.000   0.000  -0.000
    8        0.000   0.000   0.000   0.000
    9       -0.000   0.000  -0.000  -0.000
   10        0.000  -0.000   0.000   0.000
   11        0.000   0.000   0.000   0.000
   12        0.000   0.000  -0.000  -0.000
   13       -0.000  -0.000  -0.000  -0.000
   14       -0.000  -0.000  -0.000  -0.000
   15       -0.000  -0.000  -0.000  -0.000
   16       -0.000  -0.000   0.000  -0.000
--------------------------------------------------
tot         -0.000   0.000  -0.000  -0.000
 
 BZINTS: Fermi energy:   10.213694;  137.000000 electrons
         Band energy:-0.104705E+04;  BLOECHL correction:   -0.099163

 total amount of memory used by VASP MPI-rank0   222861. kBytes
=======================================================================

   base      :      30000. kBytes
   nonlr-proj:      12255. kBytes
   fftplans  :       8029. kBytes
   grid      :      30523. kBytes
   one-center:        497. kBytes
   wavefun   :     141557. kBytes
 
  
  
 General timing and accounting informations for this job:
 ========================================================
  
                  Total CPU time used (sec):     1052.557
                            User time (sec):     1026.651
                          System time (sec):       25.905
                         Elapsed time (sec):     1092.718
  
                   Maximum memory used (kb):      368812.
                   Average memory used (kb):          N/A
  
                          Minor page faults:       449953
                          Major page faults:          468
                 Voluntary context switches:         1578
