unknown system                          
           1
     5.828363    0.000000   -0.000265
    -0.000188    5.826912   -0.000227
     0.000000    0.000000    6.048066
   Al   Co   Ni   Ru
     8     1     3     4
Direct configuration=     1
   0.00324200  0.50324100  0.25212700
   0.00324300  0.99675100  0.25211300
   0.49672400  0.50322800  0.25384600
   0.49672600  0.99677400  0.25385800
   0.49674900  0.50321400  0.74615800
   0.49673100  0.99677200  0.74614400
   0.00325700  0.50324700  0.74786700
   0.00323800  0.99676700  0.74789000
   0.24965500  0.74999600  0.50000700
   0.74956000  0.24999700  0.00000200
   0.25044900  0.74999900  0.00000000
   0.75047800  0.25000000  0.49999200
   0.25077900  0.25000100  0.00000200
   0.74932700  0.74999700  0.00000000
   0.24923000  0.25000500  0.50000000
   0.75061000  0.75001000  0.50000200
unknown system                          
           1
     5.787530   -0.000616   -0.000002
    -0.000803    5.787153    0.000032
     0.000271    0.000267    5.997640
   Al   Co   Ni   Ru
     8     1     3     4
Direct configuration=     2
   0.00324619  0.50326346  0.25218709
   0.00325746  0.99672995  0.25219597
   0.49672345  0.50326370  0.25365888
   0.49671652  0.99673811  0.25365261
   0.49673563  0.50324708  0.74634369
   0.49672805  0.99674700  0.74635378
   0.00326636  0.50327767  0.74780566
   0.00324912  0.99673531  0.74780795
   0.24966640  0.75000427  0.50000667
   0.74961696  0.24999571  0.00000211
   0.25041864  0.74999987 -0.00000129
   0.75042379  0.25000099  0.49999299
   0.25067312  0.25000039  0.00000082
   0.74939887  0.74999557  0.00000070
   0.24931970  0.24999755  0.50000065
   0.75055775  0.75000236  0.49999970
unknown system                          
           1
     5.812111   -0.000245   -0.000160
    -0.000433    5.811088   -0.000124
     0.000108    0.000106    6.027996
   Al   Co   Ni   Ru
     8     1     3     4
Direct configuration=     3
   0.00324365  0.50324985  0.25215061
   0.00324870  0.99674271  0.25214560
   0.49672377  0.50324206  0.25377247
   0.49672226  0.99675986  0.25377729
   0.49674374  0.50322704  0.74623097
   0.49672985  0.99676216  0.74622643
   0.00326068  0.50325908  0.74784290
   0.00324238  0.99675451  0.74785776
   0.24965949  0.74999926  0.50000687
   0.74958243  0.24999649  0.00000205
   0.25043705  0.74999934 -0.00000051
   0.75045665  0.25000039  0.49999239
   0.25073731  0.25000077  0.00000154
   0.74935530  0.74999643  0.00000028
   0.24926532  0.25000206  0.50000026
   0.75058943  0.75000699  0.50000109
